LAMMPS data file for default_name

21 atoms
21 bonds
34 angles
54 dihedrals
0 impropers

7 atom types
9 bond types
13 angle types
11 dihedral types

-5.1820000000000004 2.6120000000000001 xlo xhi
-3.2930000000000001 3.5329999999999999 ylo yhi
-2.9159999999999999 1.4570000000000001 zlo zhi

Masses

1 12.01
2 1.008
3 1.008
4 16.0
5 12.01
6 16.0
7 1.008

Pair Coeffs

1 0.10939999991572773 3.3996695084507409
2 0.01570000002623629 2.6495327872602221
3 0.015700000098461422 2.4713530426421655
4 0.17000000010548533 3.0000123432245225
5 0.086000000128358844 3.3996695079448309
6 0.20999999984182244 2.9599219016446874
7 0.015000000064220668 2.5996424587350853

Bond Coeffs

1 344.30000000000001 1.087
2 478.39999999999998 1.387
3 648.0 1.214
4 349.69999999999999 1.4870000000000001
5 411.30000000000001 1.343
6 335.89999999999998 1.093
7 301.5 1.4390000000000001
8 337.30000000000001 1.0920000000000001
9 303.10000000000002 1.5349999999999999

Angle Coeffs

1 48.460000000000001 120.01005126147997
2 67.180000000000007 119.97005135892852
3 68.670000000000002 123.44005278879034
4 64.640000000000001 120.1400513744906
5 75.930000000000007 123.33005291353435
6 68.780000000000001 115.54004940304246
7 50.840000000000003 108.82004686678859
8 39.18 109.55004723694461
9 63.630000000000003 115.1400492316122
10 46.369999999999997 110.05004745123244
11 39.43 108.3500467226538
12 46.359999999999999 110.07004711602929
13 67.780000000000001 108.42004669535831

Dihedral Coeffs

1 3.625 -1 2
2 0.383333333 1 3
3 1.3999999999999999 -1 1
4 2.7000000000000002 -1 2
5 0.15555555600000001 1 3
6 0.25 1 1
7 0.0 1 3
8 0.80000000000000004 -1 1
9 0.38300000000000001 1 3
10 1.1000000000000001 -1 2
11 10.5 -1 2

Atoms

1 0 1 0.0 -4.202 1.7070000000000001 -1.847
2 0 2 0.0 -4.0129999999999999 0.58199999999999996 -1.865
3 0 2 0.0 -4.2670000000000003 2.0979999999999999 -2.9159999999999999
4 0 2 0.0 -5.1820000000000004 1.919 -1.304
5 0 1 0.0 -3.0449999999999999 2.4079999999999999 -1.1120000000000001
6 0 3 0.0 -3.2330000000000001 3.5329999999999999 -1.0920000000000001
7 0 3 0.0 -2.0659999999999998 2.1949999999999998 -1.6539999999999999
8 0 4 0.0 -2.9620000000000002 1.887 0.30299999999999999
9 0 5 0.0 -2.6989999999999998 0.40200000000000002 0.26200000000000001
10 0 6 0.0 -3.8279999999999998 -0.55600000000000005 -0.027
11 0 5 0.0 -1.2809999999999999 -0.13500000000000001 0.53300000000000003
12 0 5 0.0 -0.151 0.83899999999999997 0.91200000000000003
13 0 7 0.0 -0.36599999999999999 1.9550000000000001 0.999
14 0 5 0.0 1.27 0.30499999999999999 1.1739999999999999
15 0 7 0.0 2.1059999999999999 1.026 1.4570000000000001
16 0 5 0.0 1.5589999999999999 -1.2030000000000001 1.054
17 0 7 0.0 2.6120000000000001 -1.5980000000000001 1.246
18 0 5 0.0 0.42799999999999999 -2.177 0.67600000000000005
19 0 7 0.0 0.64300000000000002 -3.2930000000000001 0.58699999999999997
20 0 5 0.0 -0.99299999999999999 -1.6439999999999999 0.41999999999999998
21 0 7 0.0 -1.831 -2.3639999999999999 0.14000000000000001

Bonds

1 1 20 21
2 1 18 19
3 1 16 17
4 1 14 15
5 1 12 13
6 6 5 6
7 6 5 7
8 8 1 2
9 8 1 3
10 8 1 4
11 2 18 20
12 2 16 18
13 2 14 16
14 2 12 14
15 2 11 12
16 2 11 20
17 3 9 10
18 4 9 11
19 5 8 9
20 7 5 8
21 9 1 5

Angles

1 1 19 18 20
2 1 18 20 21
3 1 17 16 18
4 1 16 18 19
5 1 15 14 16
6 1 14 16 17
7 1 13 12 14
8 1 12 14 15
9 1 11 12 13
10 1 11 20 21
11 7 7 5 8
12 8 6 5 7
13 7 6 5 8
14 10 4 1 5
15 11 3 1 4
16 10 3 1 5
17 11 2 1 3
18 11 2 1 4
19 10 2 1 5
20 12 1 5 6
21 12 1 5 7
22 2 16 18 20
23 2 14 16 18
24 2 12 11 20
25 2 12 14 16
26 2 11 12 14
27 2 11 20 18
28 3 10 9 11
29 4 9 11 12
30 4 9 11 20
31 5 8 9 10
32 6 8 9 11
33 9 5 8 9
34 13 1 5 8

Dihedrals

1 1 19 18 20 21
2 1 17 16 18 19
3 1 17 16 18 20
4 1 16 18 20 21
5 1 15 14 16 17
6 1 15 14 16 18
7 1 14 16 18 19
8 1 13 12 11 20
9 1 13 12 14 15
10 1 13 12 14 16
11 1 12 11 20 21
12 1 12 14 16 17
13 1 11 12 14 15
14 1 11 20 18 19
15 1 9 11 12 13
16 1 9 11 20 21
17 2 7 5 8 9
18 2 6 5 8 9
19 5 4 1 5 6
20 5 4 1 5 7
21 6 4 1 5 8
22 7 4 1 5 8
23 5 3 1 5 6
24 5 3 1 5 7
25 6 3 1 5 8
26 7 3 1 5 8
27 5 2 1 5 6
28 5 2 1 5 7
29 6 2 1 5 8
30 7 2 1 5 8
31 10 11 18 20 21
32 10 16 20 18 19
33 10 14 18 16 17
34 10 12 16 14 15
35 10 11 14 12 13
36 1 14 12 11 20
37 1 14 16 18 20
38 1 12 11 20 18
39 1 12 14 16 18
40 1 11 12 14 16
41 1 11 20 18 16
42 1 10 9 11 12
43 1 10 9 11 20
44 1 9 11 12 14
45 1 9 11 20 18
46 1 8 9 11 12
47 1 8 9 11 20
48 3 5 8 9 10
49 4 5 8 9 10
50 4 5 8 9 11
51 8 1 5 8 9
52 9 1 5 8 9
53 10 9 12 11 20
54 11 11 10 9 8

