LAMMPS data file for default_name

36 atoms
35 bonds
66 angles
110 dihedrals
0 impropers

8 atom types
8 bond types
14 angle types
11 dihedral types

-6.8070000000000004 7.7309999999999999 xlo xhi
-0.81899999999999995 2.585 ylo yhi
-0.69599999999999995 2.367 zlo zhi

Masses

1 14.01
2 1.008
3 12.01
4 1.008
5 1.008
6 12.01
7 1.008
8 16.0

Pair Coeffs

1 0.16999999991766696 3.2499985240310356
2 0.015700000004219245 1.0690784617205229
3 0.10939999991572773 3.3996695084507409
4 0.015700000098461422 2.4713530426421655
5 0.01570000002623629 2.6495327872602221
6 0.086000000128358844 3.3996695079448309
7 0.014999999991481437 2.5105525875831352
8 0.20999999984182244 2.9599219016446874

Bond Coeffs

1 310.5 1.1123000000000001
2 648.0 1.214
3 337.30000000000001 1.0920000000000001
4 328.30000000000001 1.508
5 303.10000000000002 1.5349999999999999
6 335.89999999999998 1.093
7 394.10000000000002 1.018
8 320.60000000000002 1.47

Angle Coeffs

1 54.280000000000001 120.93005188495273
2 47.200000000000003 109.68004677699743
3 39.43 108.3500467226538
4 46.109999999999999 114.40004902905777
5 68.030000000000001 123.1100525900646
6 46.369999999999997 110.05004745123244
7 63.789999999999999 110.53004742776565
8 63.210000000000001 110.63004747062323
9 46.359999999999999 110.07004711602929
10 39.18 109.55004723694461
11 47.130000000000003 109.92004733822183
12 41.299999999999997 107.13004597060835
13 49.390000000000001 109.92004733822183
14 66.180000000000007 110.38004707700041

Dihedral Coeffs

1 0.0 -1 2
2 0.80000000000000004 1 1
3 0.080000000000000002 -1 3
4 0.14999999999999999 1 3
5 0.15555555600000001 1 3
6 0.16 1 3
7 0.20000000000000001 -1 1
8 0.25 -1 2
9 0.17999999999999999 1 3
10 0.29999999999999999 1 3
11 10.5 -1 2

Atoms

1 0 1 0.0 -6.0570000000000004 0.88900000000000001 0.14099999999999999
2 0 2 0.0 -5.9710000000000001 0.16600000000000001 -0.69599999999999995
3 0 2 0.0 -6.8070000000000004 1.6659999999999999 -0.11700000000000001
4 0 3 0.0 -4.7160000000000002 1.54 0.38
5 0 4 0.0 -4.3849999999999998 2.085 -0.56499999999999995
6 0 4 0.0 -4.7999999999999998 2.2850000000000001 1.2390000000000001
7 0 3 0.0 -3.6829999999999998 0.45500000000000002 0.73599999999999999
8 0 5 0.0 -3.6080000000000001 -0.28899999999999998 -0.124
9 0 5 0.0 -4.0129999999999999 -0.089999999999999997 1.6819999999999999
10 0 3 0.0 -2.3050000000000002 1.101 0.96899999999999997
11 0 5 0.0 -2.363 1.839 1.8360000000000001
12 0 5 0.0 -1.9770000000000001 1.6479999999999999 0.024
13 0 3 0.0 -1.29 -0.01 1.2929999999999999
14 0 5 0.0 -1.2569999999999999 -0.745 0.42199999999999999
15 0 5 0.0 -1.605 -0.55800000000000005 2.242
16 0 3 0.0 0.109 0.60299999999999998 1.4850000000000001
17 0 5 0.0 0.86299999999999999 -0.23100000000000001 1.677
18 0 5 0.0 0.105 1.325 2.367
19 0 3 0.0 0.496 1.3600000000000001 0.20200000000000001
20 0 5 0.0 0.45300000000000001 0.64700000000000002 -0.68600000000000005
21 0 5 0.0 -0.22700000000000001 2.2250000000000001 0.033000000000000002
22 0 3 0.0 1.9350000000000001 1.885 0.34999999999999998
23 0 5 0.0 2.0070000000000001 2.585 1.2470000000000001
24 0 5 0.0 2.2410000000000001 2.4409999999999998 -0.59699999999999998
25 0 3 0.0 2.8530000000000002 0.66600000000000004 0.55500000000000005
26 0 5 0.0 2.75 -0.029999999999999999 -0.34200000000000003
27 0 5 0.0 2.5409999999999999 0.111 1.5009999999999999
28 0 3 0.0 4.3200000000000003 1.115 0.67500000000000004
29 0 5 0.0 4.4450000000000003 1.8 1.577
30 0 5 0.0 4.6239999999999997 1.6719999999999999 -0.27200000000000002
31 0 3 0.0 5.2069999999999999 -0.13400000000000001 0.83799999999999997
32 0 5 0.0 5.0599999999999996 -0.81899999999999995 -0.060999999999999999
33 0 5 0.0 4.9119999999999999 -0.68999999999999995 1.7889999999999999
34 0 6 0.0 6.6849999999999996 0.28799999999999998 0.92400000000000004
35 0 7 0.0 6.9790000000000001 1.2110000000000001 1.524
36 0 8 0.0 7.7309999999999999 -0.46200000000000002 0.13400000000000001

Bonds

1 1 34 35
2 3 31 32
3 3 31 33
4 3 28 29
5 3 28 30
6 3 25 26
7 3 25 27
8 3 22 23
9 3 22 24
10 3 19 20
11 3 19 21
12 3 16 17
13 3 16 18
14 3 13 14
15 3 13 15
16 3 10 11
17 3 10 12
18 3 7 8
19 3 7 9
20 6 4 5
21 6 4 6
22 7 1 2
23 7 1 3
24 2 34 36
25 4 31 34
26 5 28 31
27 5 25 28
28 5 22 25
29 5 19 22
30 5 16 19
31 5 13 16
32 5 10 13
33 5 7 10
34 5 4 7
35 8 1 4

Angles

1 1 35 34 36
2 2 33 31 34
3 3 32 31 33
4 2 32 31 34
5 4 31 34 35
6 6 30 28 31
7 3 29 28 30
8 6 29 28 31
9 6 28 31 32
10 6 28 31 33
11 6 27 25 28
12 3 26 25 27
13 6 26 25 28
14 6 25 28 29
15 6 25 28 30
16 6 24 22 25
17 3 23 22 24
18 6 23 22 25
19 6 22 25 26
20 6 22 25 27
21 6 21 19 22
22 3 20 19 21
23 6 20 19 22
24 6 19 22 23
25 6 19 22 24
26 6 18 16 19
27 3 17 16 18
28 6 17 16 19
29 6 16 19 20
30 6 16 19 21
31 6 15 13 16
32 3 14 13 15
33 6 14 13 16
34 6 13 16 17
35 6 13 16 18
36 6 12 10 13
37 3 11 10 12
38 6 11 10 13
39 6 10 13 14
40 6 10 13 15
41 6 9 7 10
42 3 8 7 9
43 6 8 7 10
44 6 7 10 11
45 6 7 10 12
46 9 6 4 7
47 10 5 4 6
48 9 5 4 7
49 6 4 7 8
50 6 4 7 9
51 11 3 1 4
52 12 2 1 3
53 11 2 1 4
54 13 1 4 5
55 13 1 4 6
56 5 31 34 36
57 7 28 31 34
58 8 25 28 31
59 8 22 25 28
60 8 19 22 25
61 8 16 19 22
62 8 13 16 19
63 8 10 13 16
64 8 7 10 13
65 8 4 7 10
66 14 1 4 7

Dihedrals

1 1 33 31 34 35
2 2 33 31 34 36
3 3 33 31 34 36
4 1 32 31 34 35
5 2 32 31 34 36
6 3 32 31 34 36
7 4 30 28 31 32
8 4 30 28 31 33
9 5 30 28 31 34
10 4 29 28 31 32
11 4 29 28 31 33
12 5 29 28 31 34
13 1 28 31 34 35
14 4 27 25 28 29
15 4 27 25 28 30
16 6 27 25 28 31
17 4 26 25 28 29
18 4 26 25 28 30
19 6 26 25 28 31
20 6 25 28 31 32
21 6 25 28 31 33
22 4 24 22 25 26
23 4 24 22 25 27
24 6 24 22 25 28
25 4 23 22 25 26
26 4 23 22 25 27
27 6 23 22 25 28
28 6 22 25 28 29
29 6 22 25 28 30
30 4 21 19 22 23
31 4 21 19 22 24
32 6 21 19 22 25
33 4 20 19 22 23
34 4 20 19 22 24
35 6 20 19 22 25
36 6 19 22 25 26
37 6 19 22 25 27
38 4 18 16 19 20
39 4 18 16 19 21
40 6 18 16 19 22
41 4 17 16 19 20
42 4 17 16 19 21
43 6 17 16 19 22
44 6 16 19 22 23
45 6 16 19 22 24
46 4 15 13 16 17
47 4 15 13 16 18
48 6 15 13 16 19
49 4 14 13 16 17
50 4 14 13 16 18
51 6 14 13 16 19
52 6 13 16 19 20
53 6 13 16 19 21
54 4 12 10 13 14
55 4 12 10 13 15
56 6 12 10 13 16
57 4 11 10 13 14
58 4 11 10 13 15
59 6 11 10 13 16
60 6 10 13 16 17
61 6 10 13 16 18
62 4 9 7 10 11
63 4 9 7 10 12
64 6 9 7 10 13
65 4 8 7 10 11
66 4 8 7 10 12
67 6 8 7 10 13
68 6 7 10 13 14
69 6 7 10 13 15
70 5 6 4 7 8
71 5 6 4 7 9
72 5 6 4 7 10
73 5 5 4 7 8
74 5 5 4 7 9
75 5 5 4 7 10
76 6 4 7 10 11
77 6 4 7 10 12
78 10 3 1 4 5
79 10 3 1 4 6
80 10 3 1 4 7
81 10 2 1 4 5
82 10 2 1 4 6
83 10 2 1 4 7
84 5 1 4 7 8
85 5 1 4 7 9
86 11 31 35 34 36
87 1 28 31 34 36
88 5 25 28 31 34
89 7 22 25 28 31
90 8 22 25 28 31
91 9 22 25 28 31
92 7 19 22 25 28
93 8 19 22 25 28
94 9 19 22 25 28
95 7 16 19 22 25
96 8 16 19 22 25
97 9 16 19 22 25
98 7 13 16 19 22
99 8 13 16 19 22
100 9 13 16 19 22
101 7 10 13 16 19
102 8 10 13 16 19
103 9 10 13 16 19
104 7 7 10 13 16
105 8 7 10 13 16
106 9 7 10 13 16
107 7 4 7 10 13
108 8 4 7 10 13
109 9 4 7 10 13
110 5 1 4 7 10

