LAMMPS data file for default_name

24 atoms
24 bonds
38 angles
62 dihedrals
0 impropers

9 atom types
11 bond types
16 angle types
13 dihedral types

-4.266 7.7839999999999998 xlo xhi
-1.647 3.0409999999999999 ylo yhi
-1.2470000000000001 1.833 zlo zhi

Masses

1 12.01
2 1.008
3 16.0
4 16.0
5 1.008
6 16.0
7 12.01
8 1.008
9 1.008

Pair Coeffs

1 0.086000000128358844 3.3996695079448309
2 0.015000000064220668 2.5996424587350853
3 0.20999999984182244 2.9599219016446874
4 0.2104000002486992 3.0664733874581418
5 0.0 0.0
6 0.17000000010548533 3.0000123432245225
7 0.10939999991572773 3.3996695084507409
8 0.015700000098461422 2.4713530426421655
9 0.01570000002623629 2.6495327872602221

Bond Coeffs

1 337.30000000000001 1.0920000000000001
2 335.89999999999998 1.093
3 303.10000000000002 1.5349999999999999
4 301.5 1.4390000000000001
5 648.0 1.214
6 411.30000000000001 1.343
7 349.69999999999999 1.4870000000000001
8 344.30000000000001 1.087
9 478.39999999999998 1.387
10 369.60000000000002 0.97399999999999998
11 466.39999999999998 1.306

Angle Coeffs

1 39.43 108.3500467226538
2 46.359999999999999 110.07004711602929
3 39.18 109.55004723694461
4 46.369999999999997 110.05004745123244
5 50.840000000000003 108.82004686678859
6 67.780000000000001 108.42004669535831
7 75.930000000000007 123.33005291353435
8 63.630000000000003 115.1400492316122
9 68.670000000000002 123.44005278879034
10 68.780000000000001 115.54004940304246
11 48.460000000000001 120.01005126147997
12 64.640000000000001 120.1400513744906
13 67.180000000000007 119.97005135892852
14 77.379999999999995 122.88005243419641
15 51.189999999999998 107.37004595887495
16 70.109999999999999 113.44004850303354

Dihedral Coeffs

1 0.15555555600000001 1 3
2 0.25 1 1
3 0.0 1 3
4 1.3999999999999999 -1 1
5 2.7000000000000002 -1 2
6 0.383333333 1 3
7 0.80000000000000004 -1 1
8 0.38300000000000001 1 3
9 3.625 -1 2
10 1.8999999999999999 1 1
11 2.2999999999999998 -1 2
12 10.5 -1 2
13 1.1000000000000001 -1 2

Atoms

1 0 1 0.0 1.4810000000000001 2.0049999999999999 0.84899999999999998
2 0 2 0.0 2.0779999999999998 2.9630000000000001 1.008
3 0 1 0.0 -0.058000000000000003 2.0499999999999998 0.84099999999999997
4 0 2 0.0 -0.59999999999999998 3.0409999999999999 0.98999999999999999
5 0 1 0.0 -0.86499999999999999 0.75700000000000001 0.627
6 0 1 0.0 -2.403 0.80800000000000005 0.59199999999999997
7 0 3 0.0 -3.1219999999999999 2.1280000000000001 0.745
8 0 4 0.0 -3.1920000000000002 -0.46200000000000002 0.38200000000000001
9 0 5 0.0 -4.266 -0.215 0.253
10 0 1 0.0 -0.13400000000000001 -0.58499999999999996 0.436
11 0 2 0.0 -0.73199999999999998 -1.5449999999999999 0.29199999999999998
12 0 1 0.0 1.4059999999999999 -0.629 0.437
13 0 2 0.0 1.948 -1.621 0.28899999999999998
14 0 1 0.0 2.214 0.66900000000000004 0.63
15 0 1 0.0 3.754 0.63 0.60199999999999998
16 0 3 0.0 4.5439999999999996 1.893 0.85099999999999998
17 0 6 0.0 4.4640000000000004 -0.68000000000000005 0.35899999999999999
18 0 7 0.0 5.9219999999999997 -0.60799999999999998 0.749
19 0 8 0.0 6.3789999999999996 -1.647 0.64200000000000002
20 0 8 0.0 6.0069999999999997 -0.26600000000000001 1.833
21 0 7 0.0 6.6879999999999997 0.36599999999999999 -0.16700000000000001
22 0 9 0.0 6.6070000000000002 0.012 -1.2470000000000001
23 0 9 0.0 7.7839999999999998 0.38700000000000001 0.14499999999999999
24 0 9 0.0 6.25 1.413 -0.076999999999999999

Bonds

1 1 21 22
2 1 21 23
3 1 21 24
4 2 18 19
5 2 18 20
6 8 12 13
7 8 10 11
8 10 8 9
9 8 3 4
10 8 1 2
11 3 18 21
12 4 17 18
13 5 15 16
14 6 15 17
15 7 14 15
16 9 12 14
17 9 10 12
18 5 6 7
19 11 6 8
20 7 5 6
21 9 5 10
22 9 3 5
23 9 1 3
24 9 1 14

Angles

1 1 23 21 24
2 1 22 21 23
3 1 22 21 24
4 2 20 18 21
5 3 19 18 20
6 2 19 18 21
7 4 18 21 22
8 4 18 21 23
9 4 18 21 24
10 5 17 18 19
11 5 17 18 20
12 11 13 12 14
13 11 11 10 12
14 11 10 12 13
15 15 6 8 9
16 11 5 10 11
17 11 4 3 5
18 11 2 1 3
19 11 2 1 14
20 11 1 3 4
21 6 17 18 21
22 7 16 15 17
23 8 15 17 18
24 9 14 15 16
25 10 14 15 17
26 12 12 14 15
27 13 10 12 14
28 14 7 6 8
29 12 6 5 10
30 9 5 6 7
31 16 5 6 8
32 13 5 10 12
33 13 3 1 14
34 12 3 5 6
35 13 3 5 10
36 13 1 3 5
37 13 1 14 12
38 12 1 14 15

Dihedrals

1 1 20 18 21 22
2 1 20 18 21 23
3 1 20 18 21 24
4 1 19 18 21 22
5 1 19 18 21 23
6 1 19 18 21 24
7 2 17 18 21 22
8 3 17 18 21 22
9 2 17 18 21 23
10 3 17 18 21 23
11 2 17 18 21 24
12 3 17 18 21 24
13 6 15 17 18 19
14 6 15 17 18 20
15 9 13 12 14 15
16 9 11 10 12 13
17 9 11 10 12 14
18 10 7 6 8 9
19 11 7 6 8 9
20 9 6 5 10 11
21 11 5 6 8 9
22 9 5 10 12 13
23 9 14 1 3 4
24 9 4 3 5 6
25 9 4 3 5 10
26 9 3 5 10 11
27 9 2 1 3 4
28 9 2 1 3 5
29 9 2 1 14 12
30 9 2 1 14 15
31 9 1 14 12 13
32 13 10 14 12 13
33 13 5 12 10 11
34 13 1 5 3 4
35 13 2 1 14 3
36 4 16 15 17 18
37 5 16 15 17 18
38 7 15 17 18 21
39 8 15 17 18 21
40 5 14 15 17 18
41 9 12 14 15 16
42 9 12 14 15 17
43 9 10 12 14 15
44 9 8 6 5 10
45 9 7 6 5 10
46 9 6 5 10 12
47 9 14 1 3 5
48 9 5 10 12 14
49 9 3 1 14 12
50 9 3 1 14 15
51 9 3 5 6 7
52 9 3 5 6 8
53 9 3 5 10 12
54 9 1 3 5 6
55 9 1 3 5 10
56 9 1 14 12 10
57 9 1 14 15 16
58 9 1 14 15 17
59 12 14 16 15 17
60 13 15 1 14 12
61 12 5 7 6 8
62 13 6 3 5 10

