LAMMPS data file for default_name

17 atoms
16 bonds
30 angles
40 dihedrals
0 impropers

2 atom types
2 bond types
3 angle types
5 dihedral types

-4.6449999999999996 -1.643 xlo xhi
-1.4319999999999999 3.8580000000000001 ylo yhi
-1.018 3.4369999999999998 zlo zhi

Masses

1 12.01
2 1.008

Pair Coeffs

1 0.10939999991572773 3.3996695084507409
2 0.01570000002623629 2.6495327872602221

Bond Coeffs

1 337.30000000000001 1.0920000000000001
2 303.10000000000002 1.5349999999999999

Angle Coeffs

1 39.43 108.3500467226538
2 46.369999999999997 110.05004745123244
3 63.210000000000001 110.63004747062323

Dihedral Coeffs

1 0.14999999999999999 1 3
2 0.16 1 3
3 0.20000000000000001 -1 1
4 0.25 -1 2
5 0.17999999999999999 1 3

Atoms

1 0 1 0.0 -3.6669999999999998 3.101 0.371
2 0 2 0.0 -4.6449999999999996 2.5710000000000002 0.61799999999999999
3 0 2 0.0 -3.843 3.8580000000000001 -0.46300000000000002
4 0 2 0.0 -3.2829999999999999 3.6400000000000001 1.298
5 0 1 0.0 -2.6240000000000001 2.0659999999999998 -0.087999999999999995
6 0 2 0.0 -1.643 2.5939999999999999 -0.32900000000000001
7 0 2 0.0 -3.0049999999999999 1.528 -1.018
8 0 1 0.0 -2.403 1.0469999999999999 1.044
9 0 2 0.0 -2.0190000000000001 1.5860000000000001 1.9710000000000001
10 0 2 0.0 -1.643 0.26300000000000001 0.71499999999999997
11 0 1 0.0 -3.7450000000000001 0.36499999999999999 1.371
12 0 2 0.0 -4.1319999999999997 -0.17499999999999999 0.44600000000000001
13 0 2 0.0 -4.5010000000000003 1.1559999999999999 1.6930000000000001
14 0 1 0.0 -3.5379999999999998 -0.64700000000000002 2.5129999999999999
15 0 2 0.0 -2.7770000000000001 -1.4319999999999999 2.1909999999999998
16 0 2 0.0 -4.5289999999999999 -1.1559999999999999 2.7570000000000001
17 0 2 0.0 -3.153 -0.10299999999999999 3.4369999999999998

Bonds

1 1 14 15
2 1 14 16
3 1 14 17
4 1 11 12
5 1 11 13
6 1 8 9
7 1 8 10
8 1 5 6
9 1 5 7
10 1 1 2
11 1 1 3
12 1 1 4
13 2 11 14
14 2 8 11
15 2 5 8
16 2 1 5

Angles

1 1 16 14 17
2 1 15 14 16
3 1 15 14 17
4 2 13 11 14
5 1 12 11 13
6 2 12 11 14
7 2 11 14 15
8 2 11 14 16
9 2 11 14 17
10 2 10 8 11
11 1 9 8 10
12 2 9 8 11
13 2 8 11 12
14 2 8 11 13
15 2 7 5 8
16 1 6 5 7
17 2 6 5 8
18 2 5 8 9
19 2 5 8 10
20 2 4 1 5
21 1 3 1 4
22 2 3 1 5
23 1 2 1 3
24 1 2 1 4
25 2 2 1 5
26 2 1 5 6
27 2 1 5 7
28 3 8 11 14
29 3 5 8 11
30 3 1 5 8

Dihedrals

1 1 13 11 14 15
2 1 13 11 14 16
3 1 13 11 14 17
4 1 12 11 14 15
5 1 12 11 14 16
6 1 12 11 14 17
7 1 10 8 11 12
8 1 10 8 11 13
9 2 10 8 11 14
10 1 9 8 11 12
11 1 9 8 11 13
12 2 9 8 11 14
13 2 8 11 14 15
14 2 8 11 14 16
15 2 8 11 14 17
16 1 7 5 8 9
17 1 7 5 8 10
18 2 7 5 8 11
19 1 6 5 8 9
20 1 6 5 8 10
21 2 6 5 8 11
22 2 5 8 11 12
23 2 5 8 11 13
24 1 4 1 5 6
25 1 4 1 5 7
26 2 4 1 5 8
27 1 3 1 5 6
28 1 3 1 5 7
29 2 3 1 5 8
30 1 2 1 5 6
31 1 2 1 5 7
32 2 2 1 5 8
33 2 1 5 8 9
34 2 1 5 8 10
35 3 5 8 11 14
36 4 5 8 11 14
37 5 5 8 11 14
38 3 1 5 8 11
39 4 1 5 8 11
40 5 1 5 8 11

