LAMMPS data file for default_name

39 atoms
38 bonds
72 angles
121 dihedrals
0 impropers

8 atom types
8 bond types
14 angle types
11 dihedral types

-6.9199999999999999 8.4000000000000004 xlo xhi
-0.89000000000000001 2.7839999999999998 ylo yhi
-0.80900000000000005 2.4319999999999999 zlo zhi

Masses

1 14.01
2 1.008
3 12.01
4 1.008
5 1.008
6 12.01
7 1.008
8 16.0

Pair Coeffs

1 0.16999999991766696 3.2499985240310356
2 0.015700000004219245 1.0690784617205229
3 0.10939999991572773 3.3996695084507409
4 0.015700000098461422 2.4713530426421655
5 0.01570000002623629 2.6495327872602221
6 0.086000000128358844 3.3996695079448309
7 0.014999999991481437 2.5105525875831352
8 0.20999999984182244 2.9599219016446874

Bond Coeffs

1 310.5 1.1123000000000001
2 648.0 1.214
3 337.30000000000001 1.0920000000000001
4 328.30000000000001 1.508
5 303.10000000000002 1.5349999999999999
6 335.89999999999998 1.093
7 394.10000000000002 1.018
8 320.60000000000002 1.47

Angle Coeffs

1 54.280000000000001 120.93005188495273
2 47.200000000000003 109.68004677699743
3 39.43 108.3500467226538
4 46.109999999999999 114.40004902905777
5 68.030000000000001 123.1100525900646
6 46.369999999999997 110.05004745123244
7 63.789999999999999 110.53004742776565
8 63.210000000000001 110.63004747062323
9 46.359999999999999 110.07004711602929
10 39.18 109.55004723694461
11 47.130000000000003 109.92004733822183
12 41.299999999999997 107.13004597060835
13 49.390000000000001 109.92004733822183
14 66.180000000000007 110.38004707700041

Dihedral Coeffs

1 0.0 -1 2
2 0.80000000000000004 1 1
3 0.080000000000000002 -1 3
4 0.14999999999999999 1 3
5 0.15555555600000001 1 3
6 0.16 1 3
7 0.20000000000000001 -1 1
8 0.25 -1 2
9 0.17999999999999999 1 3
10 0.29999999999999999 1 3
11 10.5 -1 2

Atoms

1 0 1 0.0 -6.1479999999999997 0.67100000000000004 -0.029000000000000001
2 0 2 0.0 -5.9630000000000001 -0.096000000000000002 -0.80900000000000005
3 0 2 0.0 -6.9199999999999999 1.3839999999999999 -0.38600000000000001
4 0 3 0.0 -4.8659999999999997 1.417 0.253
5 0 4 0.0 -4.5099999999999998 1.931 -0.69999999999999996
6 0 4 0.0 -5.0490000000000004 2.198 1.0629999999999999
7 0 3 0.0 -3.79 0.42099999999999999 0.72499999999999998
8 0 5 0.0 -3.6299999999999999 -0.36299999999999999 -0.086999999999999994
9 0 5 0.0 -4.1349999999999998 -0.091999999999999998 1.6830000000000001
10 0 3 0.0 -2.4590000000000001 1.1499999999999999 0.98599999999999999
11 0 5 0.0 -2.5880000000000001 1.931 1.8069999999999999
12 0 5 0.0 -2.1160000000000001 1.6579999999999999 0.024
13 0 3 0.0 -1.415 0.10199999999999999 1.409
14 0 5 0.0 -1.331 -0.68200000000000005 0.58599999999999997
15 0 5 0.0 -1.7430000000000001 -0.39800000000000002 2.3799999999999999
16 0 3 0.0 -0.042000000000000003 0.77400000000000002 1.593
17 0 5 0.0 0.73399999999999999 -0.02 1.8500000000000001
18 0 5 0.0 -0.088999999999999996 1.5449999999999999 2.4319999999999999
19 0 3 0.0 0.34300000000000003 1.47 0.27300000000000002
20 0 5 0.0 0.32200000000000001 0.71099999999999997 -0.57699999999999996
21 0 5 0.0 -0.40400000000000003 2.3039999999999998 0.052999999999999999
22 0 3 0.0 1.7669999999999999 2.0430000000000001 0.38700000000000001
23 0 5 0.0 1.8260000000000001 2.7839999999999998 1.252
24 0 5 0.0 2.0430000000000001 2.5680000000000001 -0.58699999999999997
25 0 3 0.0 2.7410000000000001 0.873 0.622
26 0 5 0.0 2.6520000000000001 0.14099999999999999 -0.247
27 0 5 0.0 2.4769999999999999 0.34100000000000003 1.595
28 0 3 0.0 4.1849999999999996 1.4019999999999999 0.68400000000000005
29 0 5 0.0 4.2919999999999998 2.1200000000000001 1.5620000000000001
30 0 5 0.0 4.4240000000000004 1.952 -0.28599999999999998
31 0 3 0.0 5.1609999999999996 0.221 0.84599999999999997
32 0 5 0.0 5.0419999999999998 -0.48999999999999999 -0.036999999999999998
33 0 5 0.0 4.9359999999999999 -0.33600000000000002 1.8149999999999999
34 0 3 0.0 6.6029999999999998 0.76200000000000001 0.875
35 0 5 0.0 6.726 1.4630000000000001 1.766
36 0 5 0.0 6.8140000000000001 1.333 -0.088999999999999996
37 0 6 0.0 7.5970000000000004 -0.40699999999999997 1.0009999999999999
38 0 7 0.0 7.7839999999999998 -0.89000000000000001 2.016
39 0 8 0.0 8.4000000000000004 -0.84499999999999997 -0.20100000000000001

Bonds

1 1 37 38
2 3 34 35
3 3 34 36
4 3 31 32
5 3 31 33
6 3 28 29
7 3 28 30
8 3 25 26
9 3 25 27
10 3 22 23
11 3 22 24
12 3 19 20
13 3 19 21
14 3 16 17
15 3 16 18
16 3 13 14
17 3 13 15
18 3 10 11
19 3 10 12
20 3 7 8
21 3 7 9
22 6 4 5
23 6 4 6
24 7 1 2
25 7 1 3
26 2 37 39
27 4 34 37
28 5 31 34
29 5 28 31
30 5 25 28
31 5 22 25
32 5 19 22
33 5 16 19
34 5 13 16
35 5 10 13
36 5 7 10
37 5 4 7
38 8 1 4

Angles

1 1 38 37 39
2 2 36 34 37
3 3 35 34 36
4 2 35 34 37
5 4 34 37 38
6 6 33 31 34
7 3 32 31 33
8 6 32 31 34
9 6 31 34 35
10 6 31 34 36
11 6 30 28 31
12 3 29 28 30
13 6 29 28 31
14 6 28 31 32
15 6 28 31 33
16 6 27 25 28
17 3 26 25 27
18 6 26 25 28
19 6 25 28 29
20 6 25 28 30
21 6 24 22 25
22 3 23 22 24
23 6 23 22 25
24 6 22 25 26
25 6 22 25 27
26 6 21 19 22
27 3 20 19 21
28 6 20 19 22
29 6 19 22 23
30 6 19 22 24
31 6 18 16 19
32 3 17 16 18
33 6 17 16 19
34 6 16 19 20
35 6 16 19 21
36 6 15 13 16
37 3 14 13 15
38 6 14 13 16
39 6 13 16 17
40 6 13 16 18
41 6 12 10 13
42 3 11 10 12
43 6 11 10 13
44 6 10 13 14
45 6 10 13 15
46 6 9 7 10
47 3 8 7 9
48 6 8 7 10
49 6 7 10 11
50 6 7 10 12
51 9 6 4 7
52 10 5 4 6
53 9 5 4 7
54 6 4 7 8
55 6 4 7 9
56 11 3 1 4
57 12 2 1 3
58 11 2 1 4
59 13 1 4 5
60 13 1 4 6
61 5 34 37 39
62 7 31 34 37
63 8 28 31 34
64 8 25 28 31
65 8 22 25 28
66 8 19 22 25
67 8 16 19 22
68 8 13 16 19
69 8 10 13 16
70 8 7 10 13
71 8 4 7 10
72 14 1 4 7

Dihedrals

1 1 36 34 37 38
2 2 36 34 37 39
3 3 36 34 37 39
4 1 35 34 37 38
5 2 35 34 37 39
6 3 35 34 37 39
7 4 33 31 34 35
8 4 33 31 34 36
9 5 33 31 34 37
10 4 32 31 34 35
11 4 32 31 34 36
12 5 32 31 34 37
13 1 31 34 37 38
14 4 30 28 31 32
15 4 30 28 31 33
16 6 30 28 31 34
17 4 29 28 31 32
18 4 29 28 31 33
19 6 29 28 31 34
20 6 28 31 34 35
21 6 28 31 34 36
22 4 27 25 28 29
23 4 27 25 28 30
24 6 27 25 28 31
25 4 26 25 28 29
26 4 26 25 28 30
27 6 26 25 28 31
28 6 25 28 31 32
29 6 25 28 31 33
30 4 24 22 25 26
31 4 24 22 25 27
32 6 24 22 25 28
33 4 23 22 25 26
34 4 23 22 25 27
35 6 23 22 25 28
36 6 22 25 28 29
37 6 22 25 28 30
38 4 21 19 22 23
39 4 21 19 22 24
40 6 21 19 22 25
41 4 20 19 22 23
42 4 20 19 22 24
43 6 20 19 22 25
44 6 19 22 25 26
45 6 19 22 25 27
46 4 18 16 19 20
47 4 18 16 19 21
48 6 18 16 19 22
49 4 17 16 19 20
50 4 17 16 19 21
51 6 17 16 19 22
52 6 16 19 22 23
53 6 16 19 22 24
54 4 15 13 16 17
55 4 15 13 16 18
56 6 15 13 16 19
57 4 14 13 16 17
58 4 14 13 16 18
59 6 14 13 16 19
60 6 13 16 19 20
61 6 13 16 19 21
62 4 12 10 13 14
63 4 12 10 13 15
64 6 12 10 13 16
65 4 11 10 13 14
66 4 11 10 13 15
67 6 11 10 13 16
68 6 10 13 16 17
69 6 10 13 16 18
70 4 9 7 10 11
71 4 9 7 10 12
72 6 9 7 10 13
73 4 8 7 10 11
74 4 8 7 10 12
75 6 8 7 10 13
76 6 7 10 13 14
77 6 7 10 13 15
78 5 6 4 7 8
79 5 6 4 7 9
80 5 6 4 7 10
81 5 5 4 7 8
82 5 5 4 7 9
83 5 5 4 7 10
84 6 4 7 10 11
85 6 4 7 10 12
86 10 3 1 4 5
87 10 3 1 4 6
88 10 3 1 4 7
89 10 2 1 4 5
90 10 2 1 4 6
91 10 2 1 4 7
92 5 1 4 7 8
93 5 1 4 7 9
94 11 34 38 37 39
95 1 31 34 37 39
96 5 28 31 34 37
97 7 25 28 31 34
98 8 25 28 31 34
99 9 25 28 31 34
100 7 22 25 28 31
101 8 22 25 28 31
102 9 22 25 28 31
103 7 19 22 25 28
104 8 19 22 25 28
105 9 19 22 25 28
106 7 16 19 22 25
107 8 16 19 22 25
108 9 16 19 22 25
109 7 13 16 19 22
110 8 13 16 19 22
111 9 13 16 19 22
112 7 10 13 16 19
113 8 10 13 16 19
114 9 10 13 16 19
115 7 7 10 13 16
116 8 7 10 13 16
117 9 7 10 13 16
118 7 4 7 10 13
119 8 4 7 10 13
120 9 4 7 10 13
121 5 1 4 7 10

