LAMMPS data file for default_name

32 atoms
31 bonds
56 angles
94 dihedrals
0 impropers

9 atom types
10 bond types
18 angle types
18 dihedral types

-5.8310000000000004 7.8860000000000001 xlo xhi
-0.70199999999999996 3.661 ylo yhi
-1.276 2.7690000000000001 zlo zhi

Masses

1 16.0
2 12.01
3 1.008
4 12.01
5 1.008
6 16.0
7 1.008
8 16.0
9 1.008

Pair Coeffs

1 0.20999999984182244 2.9599219016446874
2 0.086000000128358844 3.3996695079448309
3 0.014999999991481437 2.5105525875831352
4 0.10939999991572773 3.3996695084507409
5 0.01570000002623629 2.6495327872602221
6 0.17000000010548533 3.0000123432245225
7 0.015700000098461422 2.4713530426421655
8 0.2104000002486992 3.0664733874581418
9 0.0 0.0

Bond Coeffs

1 369.60000000000002 0.97399999999999998
2 335.89999999999998 1.093
3 314.10000000000002 1.4259999999999999
4 337.30000000000001 1.0920000000000001
5 303.10000000000002 1.5349999999999999
6 301.5 1.4390000000000001
7 648.0 1.214
8 411.30000000000001 1.343
9 328.30000000000001 1.508
10 310.5 1.1123000000000001

Angle Coeffs

1 50.969999999999999 109.88004686271258
2 39.18 109.55004723694461
3 47.090000000000003 108.16004646933708
4 46.369999999999997 110.05004745123244
5 39.43 108.3500467226538
6 46.359999999999999 110.07004711602929
7 67.719999999999999 109.4300469563324
8 63.210000000000001 110.63004747062323
9 50.840000000000003 108.82004686678859
10 67.780000000000001 108.42004669535831
11 75.930000000000007 123.33005291353435
12 63.630000000000003 115.1400492316122
13 47.200000000000003 109.68004677699743
14 68.030000000000001 123.1100525900646
15 69.260000000000005 111.96004809792466
16 63.789999999999999 110.53004742776565
17 46.109999999999999 114.40004902905777
18 54.280000000000001 120.93005188495273

Dihedral Coeffs

1 0.16666666699999999 1 3
2 0.15555555600000001 1 3
3 0.25 1 1
4 0.0 1 3
5 0.16 1 3
6 0.14999999999999999 1 3
7 0.20000000000000001 -1 1
8 0.25 -1 2
9 0.17999999999999999 1 3
10 1.3999999999999999 -1 1
11 2.7000000000000002 -1 2
12 0.383333333 1 3
13 0.80000000000000004 -1 1
14 0.38300000000000001 1 3
15 0.80000000000000004 1 1
16 0.080000000000000002 -1 3
17 0.0 -1 2
18 10.5 -1 2

Atoms

1 0 1 0.0 6.6020000000000003 3.661 0.069000000000000006
2 0 2 0.0 6.8559999999999999 2.177 -0.047
3 0 3 0.0 7.8860000000000001 1.7989999999999999 -0.35799999999999998
4 0 4 0.0 5.6920000000000002 1.1839999999999999 0.128
5 0 5 0.0 5.8019999999999996 0.32900000000000001 -0.61799999999999999
6 0 5 0.0 5.6989999999999998 0.76900000000000002 1.1899999999999999
7 0 4 0.0 4.3689999999999998 1.9279999999999999 -0.126
8 0 5 0.0 4.2690000000000001 2.7850000000000001 0.62
9 0 5 0.0 4.3680000000000003 2.3479999999999999 -1.1859999999999999
10 0 4 0.0 3.1819999999999999 0.96299999999999997 0.043999999999999997
11 0 5 0.0 3.2749999999999999 0.106 -0.70199999999999996
12 0 5 0.0 3.177 0.54400000000000004 1.105
13 0 4 0.0 1.8759999999999999 1.7350000000000001 -0.216
14 0 5 0.0 1.7869999999999999 2.593 0.53000000000000003
15 0 5 0.0 1.8899999999999999 2.1539999999999999 -1.276
16 0 2 0.0 0.67100000000000004 0.79200000000000004 -0.056000000000000001
17 0 1 0.0 0.88400000000000001 -0.70199999999999996 -0.014
18 0 6 0.0 -0.71499999999999997 1.3660000000000001 0.112
19 0 4 0.0 -1.1339999999999999 1.2769999999999999 1.5600000000000001
20 0 7 0.0 -1.139 0.185 1.887
21 0 7 0.0 -0.41099999999999998 1.8700000000000001 2.2109999999999999
22 0 4 0.0 -2.5529999999999999 1.8600000000000001 1.6879999999999999
23 0 5 0.0 -2.9079999999999999 1.7849999999999999 2.7690000000000001
24 0 5 0.0 -2.5459999999999998 2.9529999999999998 1.3620000000000001
25 0 4 0.0 -3.4929999999999999 1.0580000000000001 0.76900000000000002
26 0 5 0.0 -3.1179999999999999 1.1299999999999999 -0.30499999999999999
27 0 5 0.0 -3.5030000000000001 -0.034000000000000002 1.095
28 0 4 0.0 -4.9189999999999996 1.633 0.85199999999999998
29 0 7 0.0 -4.9089999999999998 2.7269999999999999 0.53000000000000003
30 0 7 0.0 -5.298 1.556 1.9239999999999999
31 0 8 0.0 -5.8250000000000002 0.84599999999999997 -0.064000000000000001
32 0 9 0.0 -5.8310000000000004 -0.219 0.249

Bonds

1 1 31 32
2 2 28 29
3 2 28 30
4 4 25 26
5 4 25 27
6 4 22 23
7 4 22 24
8 2 19 20
9 2 19 21
10 4 13 14
11 4 13 15
12 4 10 11
13 4 10 12
14 4 7 8
15 4 7 9
16 4 4 5
17 4 4 6
18 10 2 3
19 3 28 31
20 5 25 28
21 5 22 25
22 5 19 22
23 6 18 19
24 7 16 17
25 8 16 18
26 9 13 16
27 5 10 13
28 5 7 10
29 5 4 7
30 9 2 4
31 7 1 2

Angles

1 1 30 28 31
2 2 29 28 30
3 1 29 28 31
4 3 28 31 32
5 4 27 25 28
6 5 26 25 27
7 4 26 25 28
8 6 25 28 29
9 6 25 28 30
10 4 24 22 25
11 5 23 22 24
12 4 23 22 25
13 4 22 25 26
14 4 22 25 27
15 6 21 19 22
16 2 20 19 21
17 6 20 19 22
18 4 19 22 23
19 4 19 22 24
20 9 18 19 20
21 9 18 19 21
22 13 15 13 16
23 5 14 13 15
24 13 14 13 16
25 4 12 10 13
26 5 11 10 12
27 4 11 10 13
28 4 10 13 14
29 4 10 13 15
30 4 9 7 10
31 5 8 7 9
32 4 8 7 10
33 4 7 10 11
34 4 7 10 12
35 4 6 4 7
36 5 5 4 6
37 4 5 4 7
38 4 4 7 8
39 4 4 7 9
40 17 3 2 4
41 13 2 4 5
42 13 2 4 6
43 18 1 2 3
44 7 25 28 31
45 8 22 25 28
46 8 19 22 25
47 10 18 19 22
48 11 17 16 18
49 12 16 18 19
50 14 13 16 17
51 15 13 16 18
52 16 10 13 16
53 8 7 10 13
54 8 4 7 10
55 16 2 4 7
56 14 1 2 4

Dihedrals

1 1 30 28 31 32
2 1 29 28 31 32
3 2 27 25 28 29
4 2 27 25 28 30
5 3 27 25 28 31
6 4 27 25 28 31
7 2 26 25 28 29
8 2 26 25 28 30
9 3 26 25 28 31
10 4 26 25 28 31
11 3 25 28 31 32
12 5 25 28 31 32
13 6 24 22 25 26
14 6 24 22 25 27
15 5 24 22 25 28
16 6 23 22 25 26
17 6 23 22 25 27
18 5 23 22 25 28
19 2 22 25 28 29
20 2 22 25 28 30
21 2 21 19 22 23
22 2 21 19 22 24
23 2 21 19 22 25
24 2 20 19 22 23
25 2 20 19 22 24
26 2 20 19 22 25
27 5 19 22 25 26
28 5 19 22 25 27
29 3 18 19 22 23
30 4 18 19 22 23
31 3 18 19 22 24
32 4 18 19 22 24
33 12 16 18 19 20
34 12 16 18 19 21
35 15 15 13 16 17
36 16 15 13 16 17
37 17 15 13 16 18
38 15 14 13 16 17
39 17 14 13 16 17
40 16 14 13 16 17
41 17 14 13 16 18
42 6 12 10 13 14
43 6 12 10 13 15
44 2 12 10 13 16
45 6 11 10 13 14
46 6 11 10 13 15
47 2 11 10 13 16
48 6 9 7 10 11
49 6 9 7 10 12
50 5 9 7 10 13
51 6 8 7 10 11
52 6 8 7 10 12
53 5 8 7 10 13
54 5 7 10 13 14
55 5 7 10 13 15
56 6 6 4 7 8
57 6 6 4 7 9
58 5 6 4 7 10
59 6 5 4 7 8
60 6 5 4 7 9
61 5 5 4 7 10
62 5 4 7 10 11
63 5 4 7 10 12
64 17 3 2 4 5
65 17 3 2 4 6
66 17 3 2 4 7
67 2 2 4 7 8
68 2 2 4 7 9
69 15 1 2 4 5
70 17 1 2 4 5
71 16 1 2 4 5
72 15 1 2 4 6
73 17 1 2 4 6
74 16 1 2 4 6
75 18 1 2 3 4
76 2 22 25 28 31
77 7 19 22 25 28
78 8 19 22 25 28
79 9 19 22 25 28
80 2 18 19 22 25
81 10 17 16 18 19
82 11 17 16 18 19
83 13 16 18 19 22
84 14 16 18 19 22
85 11 13 16 18 19
86 17 10 13 16 17
87 17 10 13 16 18
88 2 7 10 13 16
89 7 4 7 10 13
90 8 4 7 10 13
91 9 4 7 10 13
92 2 2 4 7 10
93 17 1 2 4 7
94 18 13 17 16 18

