LAMMPS data file for default_name

20 atoms
19 bonds
36 angles
51 dihedrals
0 impropers

2 atom types
2 bond types
3 angle types
5 dihedral types

-5.3460000000000001 -1.6459999999999999 xlo xhi
-1.4590000000000001 3.8780000000000001 ylo yhi
-1.01 3.4249999999999998 zlo zhi

Masses

1 12.01
2 1.008

Pair Coeffs

1 0.10939999991572773 3.3996695084507409
2 0.01570000002623629 2.6495327872602221

Bond Coeffs

1 337.30000000000001 1.0920000000000001
2 303.10000000000002 1.5349999999999999

Angle Coeffs

1 39.43 108.3500467226538
2 46.369999999999997 110.05004745123244
3 63.210000000000001 110.63004747062323

Dihedral Coeffs

1 0.14999999999999999 1 3
2 0.16 1 3
3 0.20000000000000001 -1 1
4 0.25 -1 2
5 0.17999999999999999 1 3

Atoms

1 0 1 0.0 -3.6219999999999999 3.1139999999999999 0.40100000000000002
2 0 2 0.0 -4.6040000000000001 2.6110000000000002 0.68899999999999995
3 0 2 0.0 -3.8119999999999998 3.8780000000000001 -0.42399999999999999
4 0 2 0.0 -3.1829999999999998 3.6389999999999998 1.3129999999999999
5 0 1 0.0 -2.633 2.0470000000000002 -0.10199999999999999
6 0 2 0.0 -1.6459999999999999 2.54 -0.38800000000000001
7 0 2 0.0 -3.0760000000000001 1.5189999999999999 -1.01
8 0 1 0.0 -2.3969999999999998 1.0209999999999999 1.02
9 0 2 0.0 -1.958 1.5429999999999999 1.9339999999999999
10 0 2 0.0 -1.681 0.21099999999999999 0.65800000000000003
11 0 1 0.0 -3.754 0.39300000000000002 1.385
12 0 1 0.0 -4.3369999999999997 -0.29099999999999998 0.13500000000000001
13 0 2 0.0 -3.6219999999999999 -1.1040000000000001 -0.221
14 0 2 0.0 -4.4729999999999999 0.48399999999999999 -0.68999999999999995
15 0 2 0.0 -5.3460000000000001 -0.75700000000000001 0.39200000000000002
16 0 2 0.0 -4.4660000000000002 1.21 1.738
17 0 1 0.0 -3.5600000000000001 -0.64600000000000002 2.504
18 0 2 0.0 -2.8439999999999999 -1.4590000000000001 2.1469999999999998
19 0 2 0.0 -4.5659999999999998 -1.113 2.7669999999999999
20 0 2 0.0 -3.125 -0.13400000000000001 3.4249999999999998

Bonds

1 1 17 18
2 1 17 19
3 1 17 20
4 1 12 13
5 1 12 14
6 1 12 15
7 1 11 16
8 1 8 9
9 1 8 10
10 1 5 6
11 1 5 7
12 1 1 2
13 1 1 3
14 1 1 4
15 2 11 12
16 2 11 17
17 2 8 11
18 2 5 8
19 2 1 5

Angles

1 1 19 17 20
2 1 18 17 19
3 1 18 17 20
4 2 16 11 17
5 1 14 12 15
6 1 13 12 14
7 1 13 12 15
8 2 12 11 16
9 2 11 12 13
10 2 11 12 14
11 2 11 12 15
12 2 11 17 18
13 2 11 17 19
14 2 11 17 20
15 2 10 8 11
16 1 9 8 10
17 2 9 8 11
18 2 8 11 16
19 2 7 5 8
20 1 6 5 7
21 2 6 5 8
22 2 5 8 9
23 2 5 8 10
24 2 4 1 5
25 1 3 1 4
26 2 3 1 5
27 1 2 1 3
28 1 2 1 4
29 2 2 1 5
30 2 1 5 6
31 2 1 5 7
32 3 12 11 17
33 3 8 11 12
34 3 8 11 17
35 3 5 8 11
36 3 1 5 8

Dihedrals

1 1 16 11 17 18
2 1 16 11 17 19
3 1 16 11 17 20
4 1 15 12 11 16
5 2 15 12 11 17
6 1 14 12 11 16
7 2 14 12 11 17
8 1 13 12 11 16
9 2 13 12 11 17
10 2 12 11 17 18
11 2 12 11 17 19
12 2 12 11 17 20
13 2 10 8 11 12
14 1 10 8 11 16
15 2 10 8 11 17
16 2 9 8 11 12
17 1 9 8 11 16
18 2 9 8 11 17
19 2 8 11 12 13
20 2 8 11 12 14
21 2 8 11 12 15
22 2 8 11 17 18
23 2 8 11 17 19
24 2 8 11 17 20
25 1 7 5 8 9
26 1 7 5 8 10
27 2 7 5 8 11
28 1 6 5 8 9
29 1 6 5 8 10
30 2 6 5 8 11
31 2 5 8 11 16
32 1 4 1 5 6
33 1 4 1 5 7
34 2 4 1 5 8
35 1 3 1 5 6
36 1 3 1 5 7
37 2 3 1 5 8
38 1 2 1 5 6
39 1 2 1 5 7
40 2 2 1 5 8
41 2 1 5 8 9
42 2 1 5 8 10
43 3 5 8 11 12
44 4 5 8 11 12
45 5 5 8 11 12
46 3 5 8 11 17
47 4 5 8 11 17
48 5 5 8 11 17
49 3 1 5 8 11
50 4 1 5 8 11
51 5 1 5 8 11

