LAMMPS data file for default_name

14 atoms
13 bonds
24 angles
29 dihedrals
0 impropers

2 atom types
2 bond types
3 angle types
5 dihedral types

-2.1520000000000001 0.752 xlo xhi
-1.2769999999999999 3.238 ylo yhi
-0.93700000000000006 2.5800000000000001 zlo zhi

Masses

1 12.01
2 1.008

Pair Coeffs

1 0.10939999991572773 3.3996695084507409
2 0.01570000002623629 2.6495327872602221

Bond Coeffs

1 337.30000000000001 1.0920000000000001
2 303.10000000000002 1.5349999999999999

Angle Coeffs

1 39.43 108.3500467226538
2 46.369999999999997 110.05004745123244
3 63.210000000000001 110.63004747062323

Dihedral Coeffs

1 0.14999999999999999 1 3
2 0.16 1 3
3 0.20000000000000001 -1 1
4 0.25 -1 2
5 0.17999999999999999 1 3

Atoms

1 0 1 0.0 -1.4970000000000001 2.125 -0.060999999999999999
2 0 2 0.0 -2.0169999999999999 1.6140000000000001 -0.93700000000000006
3 0 2 0.0 -1.385 3.238 -0.28199999999999997
4 0 2 0.0 -2.1190000000000002 1.984 0.88400000000000001
5 0 1 0.0 -0.105 1.4990000000000001 0.14399999999999999
6 0 2 0.0 0.41099999999999998 2.004 1.0249999999999999
7 0 2 0.0 0.52300000000000002 1.6379999999999999 -0.79700000000000004
8 0 1 0.0 -0.27100000000000002 -0.0030000000000000001 0.437
9 0 2 0.0 0.752 -0.47799999999999998 0.60299999999999998
10 0 2 0.0 -0.78700000000000003 -0.50900000000000001 -0.44500000000000001
11 0 1 0.0 -1.133 -0.16900000000000001 1.7010000000000001
12 0 2 0.0 -1.2669999999999999 -1.2769999999999999 1.931
13 0 2 0.0 -2.1520000000000001 0.311 1.5269999999999999
14 0 2 0.0 -0.61799999999999999 0.34300000000000003 2.5800000000000001

Bonds

1 1 11 12
2 1 11 13
3 1 11 14
4 1 8 9
5 1 8 10
6 1 5 6
7 1 5 7
8 1 1 2
9 1 1 3
10 1 1 4
11 2 8 11
12 2 5 8
13 2 1 5

Angles

1 1 13 11 14
2 1 12 11 13
3 1 12 11 14
4 2 10 8 11
5 1 9 8 10
6 2 9 8 11
7 2 8 11 12
8 2 8 11 13
9 2 8 11 14
10 2 7 5 8
11 1 6 5 7
12 2 6 5 8
13 2 5 8 9
14 2 5 8 10
15 2 4 1 5
16 1 3 1 4
17 2 3 1 5
18 1 2 1 3
19 1 2 1 4
20 2 2 1 5
21 2 1 5 6
22 2 1 5 7
23 3 5 8 11
24 3 1 5 8

Dihedrals

1 1 10 8 11 12
2 1 10 8 11 13
3 1 10 8 11 14
4 1 9 8 11 12
5 1 9 8 11 13
6 1 9 8 11 14
7 1 7 5 8 9
8 1 7 5 8 10
9 2 7 5 8 11
10 1 6 5 8 9
11 1 6 5 8 10
12 2 6 5 8 11
13 2 5 8 11 12
14 2 5 8 11 13
15 2 5 8 11 14
16 1 4 1 5 6
17 1 4 1 5 7
18 2 4 1 5 8
19 1 3 1 5 6
20 1 3 1 5 7
21 2 3 1 5 8
22 1 2 1 5 6
23 1 2 1 5 7
24 2 2 1 5 8
25 2 1 5 8 9
26 2 1 5 8 10
27 3 1 5 8 11
28 4 1 5 8 11
29 5 1 5 8 11

