LAMMPS data file for default_name

26 atoms
25 bonds
46 angles
64 dihedrals
0 impropers

6 atom types
7 bond types
13 angle types
17 dihedral types

-6.5670000000000002 1.333 xlo xhi
-1.149 5.819 ylo yhi
-1.484 2.0590000000000002 zlo zhi

Masses

1 12.01
2 1.008
3 12.01
4 16.0
5 16.0
6 1.008

Pair Coeffs

1 0.10939999991572773 3.3996695084507409
2 0.01570000002623629 2.6495327872602221
3 0.086000000128358844 3.3996695079448309
4 0.20999999984182244 2.9599219016446874
5 0.17000000010548533 3.0000123432245225
6 0.015700000098461422 2.4713530426421655

Bond Coeffs

1 337.30000000000001 1.0920000000000001
2 303.10000000000002 1.5349999999999999
3 335.89999999999998 1.093
4 301.5 1.4390000000000001
5 648.0 1.214
6 411.30000000000001 1.343
7 328.30000000000001 1.508

Angle Coeffs

1 39.43 108.3500467226538
2 46.369999999999997 110.05004745123244
3 63.210000000000001 110.63004747062323
4 46.359999999999999 110.07004711602929
5 39.18 109.55004723694461
6 50.840000000000003 108.82004686678859
7 67.780000000000001 108.42004669535831
8 75.930000000000007 123.33005291353435
9 63.630000000000003 115.1400492316122
10 47.200000000000003 109.68004677699743
11 63.789999999999999 110.53004742776565
12 68.030000000000001 123.1100525900646
13 69.260000000000005 111.96004809792466

Dihedral Coeffs

1 0.14999999999999999 1 3
2 0.16 1 3
3 0.15555555600000001 1 3
4 0.20000000000000001 -1 1
5 0.25 -1 2
6 0.17999999999999999 1 3
7 0.25 1 1
8 0.0 1 3
9 1.3999999999999999 -1 1
10 2.7000000000000002 -1 2
11 0.383333333 1 3
12 0.80000000000000004 -1 1
13 0.38300000000000001 1 3
14 0.80000000000000004 1 1
15 0.080000000000000002 -1 3
16 0.0 -1 2
17 10.5 -1 2

Atoms

1 0 1 0.0 -6.0 0.017000000000000001 -0.14799999999999999
2 0 2 0.0 -5.9459999999999997 -1.1140000000000001 -0.28699999999999998
3 0 2 0.0 -6.5670000000000002 0.47999999999999998 -1.0209999999999999
4 0 2 0.0 -6.5430000000000001 0.254 0.82599999999999996
5 0 1 0.0 -4.5739999999999998 0.59799999999999998 -0.095000000000000001
6 0 1 0.0 -3.8039999999999998 -0.019 1.0860000000000001
7 0 2 0.0 -3.7400000000000002 -1.149 0.95399999999999996
8 0 2 0.0 -4.3479999999999999 0.221 2.0590000000000002
9 0 2 0.0 -2.7530000000000001 0.42199999999999999 1.121
10 0 2 0.0 -4.0309999999999997 0.36199999999999999 -1.069
11 0 3 0.0 -4.6399999999999997 2.1240000000000001 0.10000000000000001
12 0 4 0.0 -5.9480000000000004 2.8519999999999999 -0.087999999999999995
13 0 5 0.0 -3.4049999999999998 2.8860000000000001 0.51800000000000002
14 0 1 0.0 -3.323 4.1929999999999996 -0.23400000000000001
15 0 6 0.0 -4.1699999999999999 4.8840000000000003 0.085999999999999993
16 0 6 0.0 -3.3919999999999999 3.9950000000000001 -1.3540000000000001
17 0 1 0.0 -1.9590000000000001 4.8319999999999999 0.084000000000000005
18 0 2 0.0 -1.875 5.0179999999999998 1.2050000000000001
19 0 2 0.0 -1.8500000000000001 5.819 -0.47699999999999998
20 0 1 0.0 -0.86099999999999999 3.8500000000000001 -0.36299999999999999
21 0 2 0.0 -0.95299999999999996 3.6629999999999998 -1.484
22 0 2 0.0 -0.98799999999999999 2.8650000000000002 0.19600000000000001
23 0 1 0.0 0.52800000000000002 4.4379999999999997 -0.053999999999999999
24 0 2 0.0 0.65900000000000003 5.4199999999999999 -0.61799999999999999
25 0 2 0.0 1.333 3.7000000000000002 -0.38200000000000001
26 0 2 0.0 0.62 4.6269999999999998 1.0660000000000001

Bonds

1 1 23 24
2 1 23 25
3 1 23 26
4 1 20 21
5 1 20 22
6 1 17 18
7 1 17 19
8 3 14 15
9 3 14 16
10 1 6 7
11 1 6 8
12 1 6 9
13 1 5 10
14 1 1 2
15 1 1 3
16 1 1 4
17 2 20 23
18 2 17 20
19 2 14 17
20 4 13 14
21 5 11 12
22 6 11 13
23 2 5 6
24 7 5 11
25 2 1 5

Angles

1 1 25 23 26
2 1 24 23 25
3 1 24 23 26
4 2 22 20 23
5 1 21 20 22
6 2 21 20 23
7 2 20 23 24
8 2 20 23 25
9 2 20 23 26
10 2 19 17 20
11 1 18 17 19
12 2 18 17 20
13 2 17 20 21
14 2 17 20 22
15 4 16 14 17
16 5 15 14 16
17 4 15 14 17
18 2 14 17 18
19 2 14 17 19
20 6 13 14 15
21 6 13 14 16
22 10 10 5 11
23 1 8 6 9
24 1 7 6 8
25 1 7 6 9
26 2 6 5 10
27 2 5 6 7
28 2 5 6 8
29 2 5 6 9
30 2 4 1 5
31 1 3 1 4
32 2 3 1 5
33 1 2 1 3
34 1 2 1 4
35 2 2 1 5
36 2 1 5 10
37 3 17 20 23
38 3 14 17 20
39 7 13 14 17
40 8 12 11 13
41 9 11 13 14
42 11 6 5 11
43 12 5 11 12
44 13 5 11 13
45 3 1 5 6
46 11 1 5 11

Dihedrals

1 1 22 20 23 24
2 1 22 20 23 25
3 1 22 20 23 26
4 1 21 20 23 24
5 1 21 20 23 25
6 1 21 20 23 26
7 1 19 17 20 21
8 1 19 17 20 22
9 2 19 17 20 23
10 1 18 17 20 21
11 1 18 17 20 22
12 2 18 17 20 23
13 2 17 20 23 24
14 2 17 20 23 25
15 2 17 20 23 26
16 3 16 14 17 18
17 3 16 14 17 19
18 3 16 14 17 20
19 3 15 14 17 18
20 3 15 14 17 19
21 3 15 14 17 20
22 2 14 17 20 21
23 2 14 17 20 22
24 7 13 14 17 18
25 8 13 14 17 18
26 7 13 14 17 19
27 8 13 14 17 19
28 11 11 13 14 15
29 11 11 13 14 16
30 14 10 5 11 12
31 15 10 5 11 12
32 16 10 5 11 13
33 1 9 6 5 10
34 3 9 6 5 11
35 1 8 6 5 10
36 3 8 6 5 11
37 1 7 6 5 10
38 3 7 6 5 11
39 2 4 1 5 6
40 1 4 1 5 10
41 3 4 1 5 11
42 2 3 1 5 6
43 1 3 1 5 10
44 3 3 1 5 11
45 2 2 1 5 6
46 1 2 1 5 10
47 3 2 1 5 11
48 2 1 5 6 7
49 2 1 5 6 8
50 2 1 5 6 9
51 4 14 17 20 23
52 5 14 17 20 23
53 6 14 17 20 23
54 3 13 14 17 20
55 9 12 11 13 14
56 10 12 11 13 14
57 12 11 13 14 17
58 13 11 13 14 17
59 16 6 5 11 12
60 16 6 5 11 13
61 10 5 11 13 14
62 16 1 5 11 12
63 16 1 5 11 13
64 17 5 12 11 13

