LAMMPS data file for default_name

32 atoms
31 bonds
58 angles
86 dihedrals
0 impropers

6 atom types
7 bond types
13 angle types
17 dihedral types

-6.4039999999999999 2.7829999999999999 xlo xhi
-1.1819999999999999 6.4089999999999998 ylo yhi
-1.536 1.98 zlo zhi

Masses

1 12.01
2 1.008
3 12.01
4 16.0
5 16.0
6 1.008

Pair Coeffs

1 0.10939999991572773 3.3996695084507409
2 0.01570000002623629 2.6495327872602221
3 0.086000000128358844 3.3996695079448309
4 0.20999999984182244 2.9599219016446874
5 0.17000000010548533 3.0000123432245225
6 0.015700000098461422 2.4713530426421655

Bond Coeffs

1 337.30000000000001 1.0920000000000001
2 303.10000000000002 1.5349999999999999
3 335.89999999999998 1.093
4 301.5 1.4390000000000001
5 648.0 1.214
6 411.30000000000001 1.343
7 328.30000000000001 1.508

Angle Coeffs

1 39.43 108.3500467226538
2 46.369999999999997 110.05004745123244
3 63.210000000000001 110.63004747062323
4 46.359999999999999 110.07004711602929
5 39.18 109.55004723694461
6 50.840000000000003 108.82004686678859
7 67.780000000000001 108.42004669535831
8 75.930000000000007 123.33005291353435
9 63.630000000000003 115.1400492316122
10 47.200000000000003 109.68004677699743
11 63.789999999999999 110.53004742776565
12 68.030000000000001 123.1100525900646
13 69.260000000000005 111.96004809792466

Dihedral Coeffs

1 0.14999999999999999 1 3
2 0.16 1 3
3 0.20000000000000001 -1 1
4 0.25 -1 2
5 0.17999999999999999 1 3
6 0.15555555600000001 1 3
7 0.25 1 1
8 0.0 1 3
9 1.3999999999999999 -1 1
10 2.7000000000000002 -1 2
11 0.383333333 1 3
12 0.80000000000000004 -1 1
13 0.38300000000000001 1 3
14 0.80000000000000004 1 1
15 0.080000000000000002 -1 3
16 0.0 -1 2
17 10.5 -1 2

Atoms

1 0 1 0.0 -5.8470000000000004 0.11700000000000001 -0.108
2 0 2 0.0 -5.9349999999999996 -1.02 -0.099000000000000005
3 0 2 0.0 -6.4039999999999999 0.53800000000000003 -1.01
4 0 2 0.0 -6.2990000000000004 0.54300000000000004 0.84899999999999998
5 0 1 0.0 -4.3620000000000001 0.51800000000000002 -0.19600000000000001
6 0 1 0.0 -3.6040000000000001 -0.043999999999999997 1.024
7 0 2 0.0 -2.5059999999999998 0.25700000000000001 0.95699999999999996
8 0 2 0.0 -3.6890000000000001 -1.1819999999999999 1.032
9 0 2 0.0 -4.0570000000000004 0.38100000000000001 1.98
10 0 2 0.0 -3.9079999999999999 0.092999999999999999 -1.1519999999999999
11 0 3 0.0 -4.2569999999999997 2.0529999999999999 -0.21099999999999999
12 0 4 0.0 -5.4210000000000003 2.8820000000000001 -0.69399999999999995
13 0 5 0.0 -3.0350000000000001 2.7309999999999999 0.35799999999999998
14 0 1 0.0 -3.2290000000000001 4.2240000000000002 0.20499999999999999
15 0 6 0.0 -4.1429999999999998 4.548 0.80500000000000005
16 0 6 0.0 -3.3889999999999998 4.4630000000000001 -0.89700000000000002
17 0 1 0.0 -1.9830000000000001 4.9779999999999998 0.71299999999999997
18 0 2 0.0 -1.8169999999999999 4.7549999999999999 1.8180000000000001
19 0 2 0.0 -2.1400000000000001 6.0960000000000001 0.56299999999999994
20 0 1 0.0 -0.755 4.5149999999999997 -0.097000000000000003
21 0 2 0.0 -0.93200000000000005 4.7119999999999997 -1.206
22 0 2 0.0 -0.59099999999999997 3.3999999999999999 0.071999999999999995
23 0 1 0.0 0.48899999999999999 5.2949999999999999 0.36799999999999999
24 0 2 0.0 0.65800000000000003 5.1200000000000001 1.48
25 0 2 0.0 0.33300000000000002 6.4089999999999998 0.17899999999999999
26 0 1 0.0 1.708 4.7910000000000004 -0.41999999999999998
27 0 2 0.0 2.641 5.3579999999999997 -0.091999999999999998
28 0 2 0.0 1.538 4.9539999999999997 -1.536
29 0 1 0.0 1.8859999999999999 3.29 -0.13700000000000001
30 0 2 0.0 0.94299999999999995 2.7309999999999999 -0.45800000000000002
31 0 2 0.0 2.056 3.1339999999999999 0.97999999999999998
32 0 2 0.0 2.7829999999999999 2.8929999999999998 -0.71799999999999997

Bonds

1 1 29 30
2 1 29 31
3 1 29 32
4 1 26 27
5 1 26 28
6 1 23 24
7 1 23 25
8 1 20 21
9 1 20 22
10 1 17 18
11 1 17 19
12 3 14 15
13 3 14 16
14 1 6 7
15 1 6 8
16 1 6 9
17 1 5 10
18 1 1 2
19 1 1 3
20 1 1 4
21 2 26 29
22 2 23 26
23 2 20 23
24 2 17 20
25 2 14 17
26 4 13 14
27 5 11 12
28 6 11 13
29 2 5 6
30 7 5 11
31 2 1 5

Angles

1 1 31 29 32
2 1 30 29 31
3 1 30 29 32
4 2 28 26 29
5 1 27 26 28
6 2 27 26 29
7 2 26 29 30
8 2 26 29 31
9 2 26 29 32
10 2 25 23 26
11 1 24 23 25
12 2 24 23 26
13 2 23 26 27
14 2 23 26 28
15 2 22 20 23
16 1 21 20 22
17 2 21 20 23
18 2 20 23 24
19 2 20 23 25
20 2 19 17 20
21 1 18 17 19
22 2 18 17 20
23 2 17 20 21
24 2 17 20 22
25 4 16 14 17
26 5 15 14 16
27 4 15 14 17
28 2 14 17 18
29 2 14 17 19
30 6 13 14 15
31 6 13 14 16
32 10 10 5 11
33 1 8 6 9
34 1 7 6 8
35 1 7 6 9
36 2 6 5 10
37 2 5 6 7
38 2 5 6 8
39 2 5 6 9
40 2 4 1 5
41 1 3 1 4
42 2 3 1 5
43 1 2 1 3
44 1 2 1 4
45 2 2 1 5
46 2 1 5 10
47 3 23 26 29
48 3 20 23 26
49 3 17 20 23
50 3 14 17 20
51 7 13 14 17
52 8 12 11 13
53 9 11 13 14
54 11 6 5 11
55 12 5 11 12
56 13 5 11 13
57 3 1 5 6
58 11 1 5 11

Dihedrals

1 1 28 26 29 30
2 1 28 26 29 31
3 1 28 26 29 32
4 1 27 26 29 30
5 1 27 26 29 31
6 1 27 26 29 32
7 1 25 23 26 27
8 1 25 23 26 28
9 2 25 23 26 29
10 1 24 23 26 27
11 1 24 23 26 28
12 2 24 23 26 29
13 2 23 26 29 30
14 2 23 26 29 31
15 2 23 26 29 32
16 1 22 20 23 24
17 1 22 20 23 25
18 2 22 20 23 26
19 1 21 20 23 24
20 1 21 20 23 25
21 2 21 20 23 26
22 2 20 23 26 27
23 2 20 23 26 28
24 1 19 17 20 21
25 1 19 17 20 22
26 2 19 17 20 23
27 1 18 17 20 21
28 1 18 17 20 22
29 2 18 17 20 23
30 2 17 20 23 24
31 2 17 20 23 25
32 6 16 14 17 18
33 6 16 14 17 19
34 6 16 14 17 20
35 6 15 14 17 18
36 6 15 14 17 19
37 6 15 14 17 20
38 2 14 17 20 21
39 2 14 17 20 22
40 7 13 14 17 18
41 8 13 14 17 18
42 7 13 14 17 19
43 8 13 14 17 19
44 11 11 13 14 15
45 11 11 13 14 16
46 14 10 5 11 12
47 15 10 5 11 12
48 16 10 5 11 13
49 1 9 6 5 10
50 6 9 6 5 11
51 1 8 6 5 10
52 6 8 6 5 11
53 1 7 6 5 10
54 6 7 6 5 11
55 2 4 1 5 6
56 1 4 1 5 10
57 6 4 1 5 11
58 2 3 1 5 6
59 1 3 1 5 10
60 6 3 1 5 11
61 2 2 1 5 6
62 1 2 1 5 10
63 6 2 1 5 11
64 2 1 5 6 7
65 2 1 5 6 8
66 2 1 5 6 9
67 3 20 23 26 29
68 4 20 23 26 29
69 5 20 23 26 29
70 3 17 20 23 26
71 4 17 20 23 26
72 5 17 20 23 26
73 3 14 17 20 23
74 4 14 17 20 23
75 5 14 17 20 23
76 6 13 14 17 20
77 9 12 11 13 14
78 10 12 11 13 14
79 12 11 13 14 17
80 13 11 13 14 17
81 16 6 5 11 12
82 16 6 5 11 13
83 10 5 11 13 14
84 16 1 5 11 12
85 16 1 5 11 13
86 17 5 12 11 13

