LAMMPS data file for default_name

15 atoms
14 bonds
25 angles
35 dihedrals
0 impropers

5 atom types
5 bond types
8 angle types
9 dihedral types

-4.3970000000000002 1.391 xlo xhi
0.113 2.8889999999999998 ylo yhi
-0.995 1.008 zlo zhi

Masses

1 12.01
2 1.008
3 1.008
4 16.0
5 1.008

Pair Coeffs

1 0.10939999991572773 3.3996695084507409
2 0.01570000002623629 2.6495327872602221
3 0.015700000098461422 2.4713530426421655
4 0.2104000002486992 3.0664733874581418
5 0.0 0.0

Bond Coeffs

1 369.60000000000002 0.97399999999999998
2 335.89999999999998 1.093
3 314.10000000000002 1.4259999999999999
4 337.30000000000001 1.0920000000000001
5 303.10000000000002 1.5349999999999999

Angle Coeffs

1 50.969999999999999 109.88004686271258
2 39.18 109.55004723694461
3 47.090000000000003 108.16004646933708
4 46.369999999999997 110.05004745123244
5 39.43 108.3500467226538
6 46.359999999999999 110.07004711602929
7 67.719999999999999 109.4300469563324
8 63.210000000000001 110.63004747062323

Dihedral Coeffs

1 0.16666666699999999 1 3
2 0.15555555600000001 1 3
3 0.25 1 1
4 0.0 1 3
5 0.16 1 3
6 0.14999999999999999 1 3
7 0.20000000000000001 -1 1
8 0.25 -1 2
9 0.17999999999999999 1 3

Atoms

1 0 1 0.0 -3.5680000000000001 1.5229999999999999 -0.0050000000000000001
2 0 2 0.0 -4.3970000000000002 0.74099999999999999 0.043999999999999997
3 0 2 0.0 -3.661 2.1150000000000002 -0.97399999999999998
4 0 2 0.0 -3.661 2.2309999999999999 0.88400000000000001
5 0 1 0.0 -2.198 0.82099999999999995 0.039
6 0 2 0.0 -2.105 0.113 -0.84999999999999998
7 0 2 0.0 -2.105 0.22800000000000001 1.008
8 0 1 0.0 -1.0780000000000001 1.8759999999999999 -0.025000000000000001
9 0 2 0.0 -1.1719999999999999 2.5840000000000001 0.86299999999999999
10 0 2 0.0 -1.169 2.4689999999999999 -0.995
11 0 1 0.0 0.28999999999999998 1.171 0.023
12 0 3 0.0 0.38500000000000001 0.46200000000000002 -0.86499999999999999
13 0 3 0.0 0.375 0.57799999999999996 0.99299999999999999
14 0 4 0.0 1.391 2.202 -0.034000000000000002
15 0 5 0.0 1.2969999999999999 2.8889999999999998 0.83199999999999996

Bonds

1 1 14 15
2 2 11 12
3 2 11 13
4 4 8 9
5 4 8 10
6 4 5 6
7 4 5 7
8 4 1 2
9 4 1 3
10 4 1 4
11 3 11 14
12 5 8 11
13 5 5 8
14 5 1 5

Angles

1 1 13 11 14
2 2 12 11 13
3 1 12 11 14
4 3 11 14 15
5 4 10 8 11
6 5 9 8 10
7 4 9 8 11
8 6 8 11 12
9 6 8 11 13
10 4 7 5 8
11 5 6 5 7
12 4 6 5 8
13 4 5 8 9
14 4 5 8 10
15 4 4 1 5
16 5 3 1 4
17 4 3 1 5
18 5 2 1 3
19 5 2 1 4
20 4 2 1 5
21 4 1 5 6
22 4 1 5 7
23 7 8 11 14
24 8 5 8 11
25 8 1 5 8

Dihedrals

1 1 13 11 14 15
2 1 12 11 14 15
3 2 10 8 11 12
4 2 10 8 11 13
5 3 10 8 11 14
6 4 10 8 11 14
7 2 9 8 11 12
8 2 9 8 11 13
9 3 9 8 11 14
10 4 9 8 11 14
11 3 8 11 14 15
12 5 8 11 14 15
13 6 7 5 8 9
14 6 7 5 8 10
15 5 7 5 8 11
16 6 6 5 8 9
17 6 6 5 8 10
18 5 6 5 8 11
19 2 5 8 11 12
20 2 5 8 11 13
21 6 4 1 5 6
22 6 4 1 5 7
23 5 4 1 5 8
24 6 3 1 5 6
25 6 3 1 5 7
26 5 3 1 5 8
27 6 2 1 5 6
28 6 2 1 5 7
29 5 2 1 5 8
30 5 1 5 8 9
31 5 1 5 8 10
32 2 5 8 11 14
33 7 1 5 8 11
34 8 1 5 8 11
35 9 1 5 8 11

