LAMMPS data file for default_name

41 atoms
40 bonds
76 angles
129 dihedrals
0 impropers

6 atom types
6 bond types
9 angle types
12 dihedral types

-5.016 6.3620000000000001 xlo xhi
-0.58299999999999996 2.7879999999999998 ylo yhi
-1.4910000000000001 8.8539999999999992 zlo zhi

Masses

1 12.01
2 1.008
3 12.01
4 16.0
5 1.008
6 16.0

Pair Coeffs

1 0.10939999991572773 3.3996695084507409
2 0.01570000002623629 2.6495327872602221
3 0.086000000128358844 3.3996695079448309
4 0.2104000002486992 3.0664733874581418
5 0.0 0.0
6 0.20999999984182244 2.9599219016446874

Bond Coeffs

1 369.60000000000002 0.97399999999999998
2 466.39999999999998 1.306
3 648.0 1.214
4 337.30000000000001 1.0920000000000001
5 328.30000000000001 1.508
6 303.10000000000002 1.5349999999999999

Angle Coeffs

1 77.379999999999995 122.88005243419641
2 51.189999999999998 107.37004595887495
3 47.200000000000003 109.68004677699743
4 39.43 108.3500467226538
5 69.840000000000003 112.20004808619127
6 68.030000000000001 123.1100525900646
7 46.369999999999997 110.05004745123244
8 63.789999999999999 110.53004742776565
9 63.210000000000001 110.63004747062323

Dihedral Coeffs

1 1.8999999999999999 1 1
2 2.2999999999999998 -1 2
3 0.0 -1 2
4 0.80000000000000004 1 1
5 0.080000000000000002 -1 3
6 0.14999999999999999 1 3
7 0.15555555600000001 1 3
8 0.16 1 3
9 0.20000000000000001 -1 1
10 0.25 -1 2
11 0.17999999999999999 1 3
12 1.1000000000000001 -1 2

Atoms

1 0 1 0.0 -4.1989999999999998 1.3140000000000001 -0.60799999999999998
2 0 2 0.0 -4.6100000000000003 0.72099999999999997 -1.4910000000000001
3 0 2 0.0 -3.8519999999999999 2.339 -0.96699999999999997
4 0 2 0.0 -5.016 1.4419999999999999 0.17799999999999999
5 0 1 0.0 -3.0070000000000001 0.55900000000000005 0.0089999999999999993
6 0 2 0.0 -2.1880000000000002 0.432 -0.77500000000000002
7 0 2 0.0 -3.3500000000000001 -0.46600000000000003 0.37
8 0 1 0.0 -2.4580000000000002 1.3660000000000001 1.2
9 0 2 0.0 -3.2810000000000001 1.4970000000000001 1.978
10 0 2 0.0 -2.1120000000000001 2.3900000000000001 0.83999999999999997
11 0 1 0.0 -1.272 0.61799999999999999 1.839
12 0 2 0.0 -0.437 0.48899999999999999 1.073
13 0 2 0.0 -1.6200000000000001 -0.40500000000000003 2.2010000000000001
14 0 1 0.0 -0.75900000000000001 1.4390000000000001 3.036
15 0 2 0.0 -1.609 1.5740000000000001 3.7839999999999998
16 0 2 0.0 -0.40999999999999998 2.4620000000000002 2.6739999999999999
17 0 1 0.0 0.40799999999999997 0.71299999999999997 3.7320000000000002
18 0 2 0.0 1.2769999999999999 0.58299999999999996 3.0070000000000001
19 0 2 0.0 0.055 -0.308 4.0940000000000003
20 0 1 0.0 0.84899999999999998 1.5609999999999999 4.9390000000000001
21 0 2 0.0 -0.042000000000000003 1.7 5.6360000000000001
22 0 2 0.0 1.208 2.5800000000000001 4.577
23 0 1 0.0 1.982 0.86499999999999999 5.7160000000000002
24 0 2 0.0 2.879 0.72199999999999998 5.0339999999999998
25 0 2 0.0 1.621 -0.154 6.077
26 0 1 0.0 2.3170000000000002 1.744 6.9370000000000003
27 0 2 0.0 1.349 1.829 7.5330000000000004
28 0 2 0.0 2.6419999999999999 2.7879999999999998 6.6139999999999999
29 0 1 0.0 3.3780000000000001 1.131 7.875
30 0 2 0.0 3.0859999999999999 0.049000000000000002 8.0839999999999996
31 0 2 0.0 3.327 1.7130000000000001 8.8539999999999992
32 0 1 0.0 4.8559999999999999 1.198 7.4320000000000004
33 0 2 0.0 5.46 0.70599999999999996 8.2639999999999993
34 0 2 0.0 5.1749999999999998 2.29 7.351
35 0 1 0.0 5.2249999999999996 0.49199999999999999 6.1130000000000004
36 0 2 0.0 6.3620000000000001 0.48899999999999999 6.0270000000000001
37 0 2 0.0 4.8470000000000004 -0.58299999999999996 6.1200000000000001
38 0 3 0.0 4.6870000000000003 1.264 4.8929999999999998
39 0 4 0.0 4.4969999999999999 0.55400000000000005 3.573
40 0 5 0.0 5.4240000000000004 0.63900000000000001 2.968
41 0 6 0.0 4.2130000000000001 2.6880000000000002 5.0549999999999997

Bonds

1 1 39 40
2 4 35 36
3 4 35 37
4 4 32 33
5 4 32 34
6 4 29 30
7 4 29 31
8 4 26 27
9 4 26 28
10 4 23 24
11 4 23 25
12 4 20 21
13 4 20 22
14 4 17 18
15 4 17 19
16 4 14 15
17 4 14 16
18 4 11 12
19 4 11 13
20 4 8 9
21 4 8 10
22 4 5 6
23 4 5 7
24 4 1 2
25 4 1 3
26 4 1 4
27 2 38 39
28 3 38 41
29 5 35 38
30 6 32 35
31 6 29 32
32 6 26 29
33 6 23 26
34 6 20 23
35 6 17 20
36 6 14 17
37 6 11 14
38 6 8 11
39 6 5 8
40 6 1 5

Angles

1 2 38 39 40
2 3 37 35 38
3 4 36 35 37
4 3 36 35 38
5 7 34 32 35
6 4 33 32 34
7 7 33 32 35
8 7 32 35 36
9 7 32 35 37
10 7 31 29 32
11 4 30 29 31
12 7 30 29 32
13 7 29 32 33
14 7 29 32 34
15 7 28 26 29
16 4 27 26 28
17 7 27 26 29
18 7 26 29 30
19 7 26 29 31
20 7 25 23 26
21 4 24 23 25
22 7 24 23 26
23 7 23 26 27
24 7 23 26 28
25 7 22 20 23
26 4 21 20 22
27 7 21 20 23
28 7 20 23 24
29 7 20 23 25
30 7 19 17 20
31 4 18 17 19
32 7 18 17 20
33 7 17 20 21
34 7 17 20 22
35 7 16 14 17
36 4 15 14 16
37 7 15 14 17
38 7 14 17 18
39 7 14 17 19
40 7 13 11 14
41 4 12 11 13
42 7 12 11 14
43 7 11 14 15
44 7 11 14 16
45 7 10 8 11
46 4 9 8 10
47 7 9 8 11
48 7 8 11 12
49 7 8 11 13
50 7 7 5 8
51 4 6 5 7
52 7 6 5 8
53 7 5 8 9
54 7 5 8 10
55 7 4 1 5
56 4 3 1 4
57 7 3 1 5
58 4 2 1 3
59 4 2 1 4
60 7 2 1 5
61 7 1 5 6
62 7 1 5 7
63 1 39 38 41
64 5 35 38 39
65 6 35 38 41
66 8 32 35 38
67 9 29 32 35
68 9 26 29 32
69 9 23 26 29
70 9 20 23 26
71 9 17 20 23
72 9 14 17 20
73 9 11 14 17
74 9 8 11 14
75 9 5 8 11
76 9 1 5 8

Dihedrals

1 1 40 39 38 41
2 2 40 39 38 41
3 3 37 35 38 39
4 4 37 35 38 41
5 5 37 35 38 41
6 3 36 35 38 39
7 4 36 35 38 41
8 5 36 35 38 41
9 2 35 38 39 40
10 6 34 32 35 36
11 6 34 32 35 37
12 7 34 32 35 38
13 6 33 32 35 36
14 6 33 32 35 37
15 7 33 32 35 38
16 6 31 29 32 33
17 6 31 29 32 34
18 8 31 29 32 35
19 6 30 29 32 33
20 6 30 29 32 34
21 8 30 29 32 35
22 8 29 32 35 36
23 8 29 32 35 37
24 6 28 26 29 30
25 6 28 26 29 31
26 8 28 26 29 32
27 6 27 26 29 30
28 6 27 26 29 31
29 8 27 26 29 32
30 8 26 29 32 33
31 8 26 29 32 34
32 6 25 23 26 27
33 6 25 23 26 28
34 8 25 23 26 29
35 6 24 23 26 27
36 6 24 23 26 28
37 8 24 23 26 29
38 8 23 26 29 30
39 8 23 26 29 31
40 6 22 20 23 24
41 6 22 20 23 25
42 8 22 20 23 26
43 6 21 20 23 24
44 6 21 20 23 25
45 8 21 20 23 26
46 8 20 23 26 27
47 8 20 23 26 28
48 6 19 17 20 21
49 6 19 17 20 22
50 8 19 17 20 23
51 6 18 17 20 21
52 6 18 17 20 22
53 8 18 17 20 23
54 8 17 20 23 24
55 8 17 20 23 25
56 6 16 14 17 18
57 6 16 14 17 19
58 8 16 14 17 20
59 6 15 14 17 18
60 6 15 14 17 19
61 8 15 14 17 20
62 8 14 17 20 21
63 8 14 17 20 22
64 6 13 11 14 15
65 6 13 11 14 16
66 8 13 11 14 17
67 6 12 11 14 15
68 6 12 11 14 16
69 8 12 11 14 17
70 8 11 14 17 18
71 8 11 14 17 19
72 6 10 8 11 12
73 6 10 8 11 13
74 8 10 8 11 14
75 6 9 8 11 12
76 6 9 8 11 13
77 8 9 8 11 14
78 8 8 11 14 15
79 8 8 11 14 16
80 6 7 5 8 9
81 6 7 5 8 10
82 8 7 5 8 11
83 6 6 5 8 9
84 6 6 5 8 10
85 8 6 5 8 11
86 8 5 8 11 12
87 8 5 8 11 13
88 6 4 1 5 6
89 6 4 1 5 7
90 8 4 1 5 8
91 6 3 1 5 6
92 6 3 1 5 7
93 8 3 1 5 8
94 6 2 1 5 6
95 6 2 1 5 7
96 8 2 1 5 8
97 8 1 5 8 9
98 8 1 5 8 10
99 3 32 35 38 39
100 3 32 35 38 41
101 7 29 32 35 38
102 9 26 29 32 35
103 10 26 29 32 35
104 11 26 29 32 35
105 9 23 26 29 32
106 10 23 26 29 32
107 11 23 26 29 32
108 9 20 23 26 29
109 10 20 23 26 29
110 11 20 23 26 29
111 9 17 20 23 26
112 10 17 20 23 26
113 11 17 20 23 26
114 9 14 17 20 23
115 10 14 17 20 23
116 11 14 17 20 23
117 9 11 14 17 20
118 10 11 14 17 20
119 11 11 14 17 20
120 9 8 11 14 17
121 10 8 11 14 17
122 11 8 11 14 17
123 9 5 8 11 14
124 10 5 8 11 14
125 11 5 8 11 14
126 9 1 5 8 11
127 10 1 5 8 11
128 11 1 5 8 11
129 12 35 41 38 39

