LAMMPS data file for default_name

8 atoms
7 bonds
12 angles
11 dihedrals
0 impropers

4 atom types
4 bond types
7 angle types
3 dihedral types

-4.5590000000000002 -1.5209999999999999 xlo xhi
0.154 2.7530000000000001 ylo yhi
-2.5249999999999999 0.78300000000000003 zlo zhi

Masses

1 35.450000000000003
2 12.01
3 1.008
4 19.0

Pair Coeffs

1 0.26499999913508904 3.4709414071462272
2 0.10939999991572773 3.3996695084507409
3 0.015700000021275418 2.2931733000782102
4 0.060999999861473579 3.1181455140920482

Bond Coeffs

1 326.39999999999998 1.1000000000000001
2 363.80000000000001 1.3440000000000001
3 303.10000000000002 1.5349999999999999
4 279.0 1.786

Angle Coeffs

1 71.260000000000005 107.1600460407614
2 51.359999999999999 108.4100462900021
3 66.219999999999999 109.41004671857777
4 46.020000000000003 111.59004799664743
5 43.490000000000002 107.14004580300677
6 63.600000000000001 109.02004695250372
7 62.200000000000003 110.33004734205052

Dihedral Coeffs

1 0.15555555600000001 1 3
2 1.2 -1 1
3 0.0 1 3

Atoms

1 0 1 0.0 -1.5209999999999999 0.154 -0.40899999999999997
2 0 2 0.0 -2.5270000000000001 1.5940000000000001 -0.309
3 0 3 0.0 -2.778 1.8089999999999999 0.78300000000000003
4 0 4 0.0 -1.794 2.7530000000000001 -0.88900000000000001
5 0 2 0.0 -3.827 1.3620000000000001 -1.1000000000000001
6 0 3 0.0 -4.4809999999999999 2.294 -1.0409999999999999
7 0 4 0.0 -4.5590000000000002 0.20300000000000001 -0.51600000000000001
8 0 4 0.0 -3.5009999999999999 1.071 -2.5249999999999999

Bonds

1 1 5 6
2 1 2 3
3 2 5 7
4 2 5 8
5 2 2 4
6 3 2 5
7 4 1 2

Angles

1 2 6 5 7
2 2 6 5 8
3 2 3 2 4
4 4 3 2 5
5 4 2 5 6
6 5 1 2 3
7 1 7 5 8
8 3 4 2 5
9 3 2 5 7
10 3 2 5 8
11 6 1 2 4
12 7 1 2 5

Dihedrals

1 1 4 2 5 6
2 1 3 2 5 6
3 1 3 2 5 7
4 1 3 2 5 8
5 1 1 2 5 6
6 2 4 2 5 7
7 3 4 2 5 7
8 2 4 2 5 8
9 3 4 2 5 8
10 1 1 2 5 7
11 1 1 2 5 8

