LAMMPS data file for default_name

21 atoms
20 bonds
36 angles
55 dihedrals
0 impropers

8 atom types
8 bond types
14 angle types
11 dihedral types

-6.8520000000000003 2.0600000000000001 xlo xhi
-0.33800000000000002 2.1579999999999999 ylo yhi
-1.097 2.8730000000000002 zlo zhi

Masses

1 14.01
2 1.008
3 12.01
4 1.008
5 1.008
6 12.01
7 1.008
8 16.0

Pair Coeffs

1 0.16999999991766696 3.2499985240310356
2 0.015700000004219245 1.0690784617205229
3 0.10939999991572773 3.3996695084507409
4 0.015700000098461422 2.4713530426421655
5 0.01570000002623629 2.6495327872602221
6 0.086000000128358844 3.3996695079448309
7 0.014999999991481437 2.5105525875831352
8 0.20999999984182244 2.9599219016446874

Bond Coeffs

1 310.5 1.1123000000000001
2 648.0 1.214
3 337.30000000000001 1.0920000000000001
4 328.30000000000001 1.508
5 303.10000000000002 1.5349999999999999
6 335.89999999999998 1.093
7 394.10000000000002 1.018
8 320.60000000000002 1.47

Angle Coeffs

1 54.280000000000001 120.93005188495273
2 47.200000000000003 109.68004677699743
3 39.43 108.3500467226538
4 46.109999999999999 114.40004902905777
5 68.030000000000001 123.1100525900646
6 46.369999999999997 110.05004745123244
7 63.789999999999999 110.53004742776565
8 63.210000000000001 110.63004747062323
9 46.359999999999999 110.07004711602929
10 39.18 109.55004723694461
11 47.130000000000003 109.92004733822183
12 41.299999999999997 107.13004597060835
13 49.390000000000001 109.92004733822183
14 66.180000000000007 110.38004707700041

Dihedral Coeffs

1 0.0 -1 2
2 0.80000000000000004 1 1
3 0.080000000000000002 -1 3
4 0.14999999999999999 1 3
5 0.15555555600000001 1 3
6 0.16 1 3
7 0.20000000000000001 -1 1
8 0.25 -1 2
9 0.17999999999999999 1 3
10 0.29999999999999999 1 3
11 10.5 -1 2

Atoms

1 0 1 0.0 -5.9550000000000001 0.50600000000000001 -0.129
2 0 2 0.0 -5.6779999999999999 0.036999999999999998 -1.097
3 0 2 0.0 -6.8520000000000003 1.1419999999999999 -0.26900000000000002
4 0 3 0.0 -4.806 1.3540000000000001 0.36199999999999999
5 0 4 0.0 -4.5679999999999996 2.1560000000000001 -0.41299999999999998
6 0 4 0.0 -5.0899999999999999 1.8500000000000001 1.347
7 0 3 0.0 -3.5699999999999998 0.46100000000000002 0.57499999999999996
8 0 5 0.0 -3.29 -0.039 -0.41099999999999998
9 0 5 0.0 -3.8010000000000002 -0.33700000000000002 1.355
10 0 3 0.0 -2.3999999999999999 1.337 1.0569999999999999
11 0 5 0.0 -2.673 1.8300000000000001 2.048
12 0 5 0.0 -2.1909999999999998 2.1419999999999999 0.27800000000000002
13 0 3 0.0 -1.1419999999999999 0.46700000000000003 1.2370000000000001
14 0 5 0.0 -0.88400000000000001 -0.025999999999999999 0.24199999999999999
15 0 5 0.0 -1.3400000000000001 -0.33800000000000002 2.0190000000000001
16 0 3 0.0 0.037999999999999999 1.3500000000000001 1.6859999999999999
17 0 5 0.0 -0.21099999999999999 1.8400000000000001 2.6850000000000001
18 0 5 0.0 0.22 2.1579999999999999 0.90300000000000002
19 0 6 0.0 1.3089999999999999 0.49299999999999999 1.835
20 0 7 0.0 1.7210000000000001 0.25800000000000001 2.8730000000000002
21 0 8 0.0 2.0600000000000001 0.037999999999999999 0.60599999999999998

Bonds

1 1 19 20
2 3 16 17
3 3 16 18
4 3 13 14
5 3 13 15
6 3 10 11
7 3 10 12
8 3 7 8
9 3 7 9
10 6 4 5
11 6 4 6
12 7 1 2
13 7 1 3
14 2 19 21
15 4 16 19
16 5 13 16
17 5 10 13
18 5 7 10
19 5 4 7
20 8 1 4

Angles

1 1 20 19 21
2 2 18 16 19
3 3 17 16 18
4 2 17 16 19
5 4 16 19 20
6 6 15 13 16
7 3 14 13 15
8 6 14 13 16
9 6 13 16 17
10 6 13 16 18
11 6 12 10 13
12 3 11 10 12
13 6 11 10 13
14 6 10 13 14
15 6 10 13 15
16 6 9 7 10
17 3 8 7 9
18 6 8 7 10
19 6 7 10 11
20 6 7 10 12
21 9 6 4 7
22 10 5 4 6
23 9 5 4 7
24 6 4 7 8
25 6 4 7 9
26 11 3 1 4
27 12 2 1 3
28 11 2 1 4
29 13 1 4 5
30 13 1 4 6
31 5 16 19 21
32 7 13 16 19
33 8 10 13 16
34 8 7 10 13
35 8 4 7 10
36 14 1 4 7

Dihedrals

1 1 18 16 19 20
2 2 18 16 19 21
3 3 18 16 19 21
4 1 17 16 19 20
5 2 17 16 19 21
6 3 17 16 19 21
7 4 15 13 16 17
8 4 15 13 16 18
9 5 15 13 16 19
10 4 14 13 16 17
11 4 14 13 16 18
12 5 14 13 16 19
13 1 13 16 19 20
14 4 12 10 13 14
15 4 12 10 13 15
16 6 12 10 13 16
17 4 11 10 13 14
18 4 11 10 13 15
19 6 11 10 13 16
20 6 10 13 16 17
21 6 10 13 16 18
22 4 9 7 10 11
23 4 9 7 10 12
24 6 9 7 10 13
25 4 8 7 10 11
26 4 8 7 10 12
27 6 8 7 10 13
28 6 7 10 13 14
29 6 7 10 13 15
30 5 6 4 7 8
31 5 6 4 7 9
32 5 6 4 7 10
33 5 5 4 7 8
34 5 5 4 7 9
35 5 5 4 7 10
36 6 4 7 10 11
37 6 4 7 10 12
38 10 3 1 4 5
39 10 3 1 4 6
40 10 3 1 4 7
41 10 2 1 4 5
42 10 2 1 4 6
43 10 2 1 4 7
44 5 1 4 7 8
45 5 1 4 7 9
46 11 16 20 19 21
47 1 13 16 19 21
48 5 10 13 16 19
49 7 7 10 13 16
50 8 7 10 13 16
51 9 7 10 13 16
52 7 4 7 10 13
53 8 4 7 10 13
54 9 4 7 10 13
55 5 1 4 7 10

