LAMMPS data file for default_name

8 atoms
7 bonds
12 angles
9 dihedrals
0 impropers

2 atom types
2 bond types
2 angle types
1 dihedral types

-2.681 0.28499999999999998 xlo xhi
0.49399999999999999 2.4350000000000001 ylo yhi
-0.80600000000000005 1.476 zlo zhi

Masses

1 12.01
2 1.008

Pair Coeffs

1 0.10939999991572773 3.3996695084507409
2 0.01570000002623629 2.6495327872602221

Bond Coeffs

1 337.30000000000001 1.0920000000000001
2 303.10000000000002 1.5349999999999999

Angle Coeffs

1 39.43 108.3500467226538
2 46.369999999999997 110.05004745123244

Dihedral Coeffs

1 0.14999999999999999 1 3

Atoms

1 0 1 0.0 -1.8899999999999999 1.5009999999999999 0.0
2 0 2 0.0 -2.1339999999999999 0.49399999999999999 -0.47399999999999998
3 0 2 0.0 -1.879 2.3079999999999998 -0.80600000000000005
4 0 2 0.0 -2.681 1.756 0.78100000000000003
5 0 1 0.0 -0.50700000000000001 1.429 0.67500000000000004
6 0 2 0.0 0.28499999999999998 1.181 -0.106
7 0 2 0.0 -0.51800000000000002 0.61799999999999999 1.476
8 0 2 0.0 -0.26500000000000001 2.4350000000000001 1.155

Bonds

1 1 5 6
2 1 5 7
3 1 5 8
4 1 1 2
5 1 1 3
6 1 1 4
7 2 1 5

Angles

1 1 7 5 8
2 1 6 5 7
3 1 6 5 8
4 2 4 1 5
5 1 3 1 4
6 2 3 1 5
7 1 2 1 3
8 1 2 1 4
9 2 2 1 5
10 2 1 5 6
11 2 1 5 7
12 2 1 5 8

Dihedrals

1 1 4 1 5 6
2 1 4 1 5 7
3 1 4 1 5 8
4 1 3 1 5 6
5 1 3 1 5 7
6 1 3 1 5 8
7 1 2 1 5 6
8 1 2 1 5 7
9 1 2 1 5 8

