LAMMPS data file for default_name

38 atoms
37 bonds
68 angles
119 dihedrals
0 impropers

9 atom types
10 bond types
18 angle types
20 dihedral types

-3.5840000000000001 6.4610000000000003 xlo xhi
-2.7290000000000001 2.9420000000000002 ylo yhi
-1.986 4.8109999999999999 zlo zhi

Masses

1 16.0
2 12.01
3 1.008
4 12.01
5 1.008
6 16.0
7 1.008
8 16.0
9 1.008

Pair Coeffs

1 0.20999999984182244 2.9599219016446874
2 0.086000000128358844 3.3996695079448309
3 0.014999999991481437 2.5105525875831352
4 0.10939999991572773 3.3996695084507409
5 0.01570000002623629 2.6495327872602221
6 0.17000000010548533 3.0000123432245225
7 0.015700000098461422 2.4713530426421655
8 0.2104000002486992 3.0664733874581418
9 0.0 0.0

Bond Coeffs

1 369.60000000000002 0.97399999999999998
2 335.89999999999998 1.093
3 314.10000000000002 1.4259999999999999
4 303.10000000000002 1.5349999999999999
5 301.5 1.4390000000000001
6 648.0 1.214
7 411.30000000000001 1.343
8 337.30000000000001 1.0920000000000001
9 328.30000000000001 1.508
10 310.5 1.1123000000000001

Angle Coeffs

1 50.969999999999999 109.88004686271258
2 39.18 109.55004723694461
3 47.090000000000003 108.16004646933708
4 46.359999999999999 110.07004711602929
5 67.719999999999999 109.4300469563324
6 50.840000000000003 108.82004686678859
7 67.780000000000001 108.42004669535831
8 75.930000000000007 123.33005291353435
9 63.630000000000003 115.1400492316122
10 47.200000000000003 109.68004677699743
11 39.43 108.3500467226538
12 68.030000000000001 123.1100525900646
13 69.260000000000005 111.96004809792466
14 46.369999999999997 110.05004745123244
15 63.789999999999999 110.53004742776565
16 63.210000000000001 110.63004747062323
17 46.109999999999999 114.40004902905777
18 54.280000000000001 120.93005188495273

Dihedral Coeffs

1 0.16666666699999999 1 3
2 0.15555555600000001 1 3
3 0.25 1 1
4 0.0 1 3
5 0.16 1 3
6 1.175 1 2
7 0.14399999999999999 1 3
8 1.3999999999999999 -1 1
9 2.7000000000000002 -1 2
10 0.383333333 1 3
11 0.80000000000000004 -1 1
12 0.38300000000000001 1 3
13 0.80000000000000004 1 1
14 0.080000000000000002 -1 3
15 0.0 -1 2
16 0.14999999999999999 1 3
17 0.20000000000000001 -1 1
18 0.25 -1 2
19 0.17999999999999999 1 3
20 10.5 -1 2

Atoms

1 0 1 0.0 -3.5840000000000001 1.804 1.5
2 0 2 0.0 -2.2919999999999998 1.2250000000000001 0.97399999999999998
3 0 3 0.0 -2.3140000000000001 0.44 0.14699999999999999
4 0 4 0.0 -0.94399999999999995 1.698 1.5489999999999999
5 0 5 0.0 -0.83699999999999997 2.8239999999999998 1.4059999999999999
6 0 5 0.0 -0.109 1.153 1.0009999999999999
7 0 4 0.0 -0.88300000000000001 1.3500000000000001 3.0470000000000002
8 0 5 0.0 -1.7609999999999999 1.847 3.5790000000000002
9 0 5 0.0 -0.97699999999999998 0.219 3.1539999999999999
10 0 4 0.0 0.42499999999999999 1.8049999999999999 3.7280000000000002
11 0 5 0.0 0.51200000000000001 2.9420000000000002 3.7120000000000002
12 0 5 0.0 0.378 1.45 4.8109999999999999
13 0 4 0.0 1.6739999999999999 1.1919999999999999 3.0649999999999999
14 0 5 0.0 2.581 1.395 3.7240000000000002
15 0 5 0.0 1.528 0.065000000000000002 2.964
16 0 4 0.0 1.9550000000000001 1.831 1.6899999999999999
17 0 5 0.0 1.0600000000000001 1.7210000000000001 0.998
18 0 5 0.0 2.1800000000000002 2.9390000000000001 1.835
19 0 4 0.0 3.1589999999999998 1.1319999999999999 1.0349999999999999
20 0 5 0.0 4.0730000000000004 1.2030000000000001 1.7130000000000001
21 0 5 0.0 2.8969999999999998 0.036999999999999998 0.86199999999999999
22 0 4 0.0 3.468 1.8160000000000001 -0.31
23 0 5 0.0 3.7719999999999998 2.8969999999999998 -0.11
24 0 5 0.0 2.5419999999999998 1.8 -0.97499999999999998
25 0 4 0.0 4.6139999999999999 1.0760000000000001 -1.024
26 0 5 0.0 4.8810000000000002 1.6259999999999999 -1.986
27 0 5 0.0 4.2800000000000002 0.017000000000000001 -1.28
28 0 2 0.0 5.843 1.006 -0.10100000000000001
29 0 1 0.0 6.4610000000000003 2.2810000000000001 0.42199999999999999
30 0 6 0.0 6.4290000000000003 -0.33400000000000002 0.28499999999999998
31 0 4 0.0 5.6859999999999999 -1.4610000000000001 -0.39400000000000002
32 0 7 0.0 6.2110000000000003 -2.448 -0.16800000000000001
33 0 7 0.0 5.6820000000000004 -1.2849999999999999 -1.52
34 0 4 0.0 4.2350000000000003 -1.5409999999999999 0.11799999999999999
35 0 7 0.0 3.6960000000000002 -0.56499999999999995 -0.114
36 0 7 0.0 4.2350000000000003 -1.718 1.244
37 0 8 0.0 3.5190000000000001 -2.6749999999999998 -0.57399999999999995
38 0 9 0.0 2.472 -2.7290000000000001 -0.20999999999999999

Bonds

1 1 37 38
2 2 34 35
3 2 34 36
4 2 31 32
5 2 31 33
6 8 25 26
7 8 25 27
8 8 22 23
9 8 22 24
10 8 19 20
11 8 19 21
12 8 16 17
13 8 16 18
14 8 13 14
15 8 13 15
16 8 10 11
17 8 10 12
18 8 7 8
19 8 7 9
20 8 4 5
21 8 4 6
22 10 2 3
23 3 34 37
24 4 31 34
25 5 30 31
26 6 28 29
27 7 28 30
28 9 25 28
29 4 22 25
30 4 19 22
31 4 16 19
32 4 13 16
33 4 10 13
34 4 7 10
35 4 4 7
36 9 2 4
37 6 1 2

Angles

1 1 36 34 37
2 2 35 34 36
3 1 35 34 37
4 3 34 37 38
5 4 33 31 34
6 2 32 31 33
7 4 32 31 34
8 4 31 34 35
9 4 31 34 36
10 6 30 31 32
11 6 30 31 33
12 10 27 25 28
13 11 26 25 27
14 10 26 25 28
15 14 24 22 25
16 11 23 22 24
17 14 23 22 25
18 14 22 25 26
19 14 22 25 27
20 14 21 19 22
21 11 20 19 21
22 14 20 19 22
23 14 19 22 23
24 14 19 22 24
25 14 18 16 19
26 11 17 16 18
27 14 17 16 19
28 14 16 19 20
29 14 16 19 21
30 14 15 13 16
31 11 14 13 15
32 14 14 13 16
33 14 13 16 17
34 14 13 16 18
35 14 12 10 13
36 11 11 10 12
37 14 11 10 13
38 14 10 13 14
39 14 10 13 15
40 14 9 7 10
41 11 8 7 9
42 14 8 7 10
43 14 7 10 11
44 14 7 10 12
45 14 6 4 7
46 11 5 4 6
47 14 5 4 7
48 14 4 7 8
49 14 4 7 9
50 17 3 2 4
51 10 2 4 5
52 10 2 4 6
53 18 1 2 3
54 5 31 34 37
55 7 30 31 34
56 8 29 28 30
57 9 28 30 31
58 12 25 28 29
59 13 25 28 30
60 15 22 25 28
61 16 19 22 25
62 16 16 19 22
63 16 13 16 19
64 16 10 13 16
65 16 7 10 13
66 16 4 7 10
67 15 2 4 7
68 12 1 2 4

Dihedrals

1 1 36 34 37 38
2 1 35 34 37 38
3 2 33 31 34 35
4 2 33 31 34 36
5 3 33 31 34 37
6 4 33 31 34 37
7 2 32 31 34 35
8 2 32 31 34 36
9 3 32 31 34 37
10 4 32 31 34 37
11 3 31 34 37 38
12 5 31 34 37 38
13 3 30 31 34 35
14 4 30 31 34 35
15 3 30 31 34 36
16 4 30 31 34 36
17 10 28 30 31 32
18 10 28 30 31 33
19 13 27 25 28 29
20 14 27 25 28 29
21 15 27 25 28 30
22 13 26 25 28 29
23 15 26 25 28 29
24 14 26 25 28 29
25 15 26 25 28 30
26 16 24 22 25 26
27 16 24 22 25 27
28 2 24 22 25 28
29 16 23 22 25 26
30 16 23 22 25 27
31 2 23 22 25 28
32 16 21 19 22 23
33 16 21 19 22 24
34 5 21 19 22 25
35 16 20 19 22 23
36 16 20 19 22 24
37 5 20 19 22 25
38 5 19 22 25 26
39 5 19 22 25 27
40 16 18 16 19 20
41 16 18 16 19 21
42 5 18 16 19 22
43 16 17 16 19 20
44 16 17 16 19 21
45 5 17 16 19 22
46 5 16 19 22 23
47 5 16 19 22 24
48 16 15 13 16 17
49 16 15 13 16 18
50 5 15 13 16 19
51 16 14 13 16 17
52 16 14 13 16 18
53 5 14 13 16 19
54 5 13 16 19 20
55 5 13 16 19 21
56 16 12 10 13 14
57 16 12 10 13 15
58 5 12 10 13 16
59 16 11 10 13 14
60 16 11 10 13 15
61 5 11 10 13 16
62 5 10 13 16 17
63 5 10 13 16 18
64 16 9 7 10 11
65 16 9 7 10 12
66 5 9 7 10 13
67 16 8 7 10 11
68 16 8 7 10 12
69 5 8 7 10 13
70 5 7 10 13 14
71 5 7 10 13 15
72 16 6 4 7 8
73 16 6 4 7 9
74 5 6 4 7 10
75 16 5 4 7 8
76 16 5 4 7 9
77 5 5 4 7 10
78 5 4 7 10 11
79 5 4 7 10 12
80 15 3 2 4 5
81 15 3 2 4 6
82 15 3 2 4 7
83 2 2 4 7 8
84 2 2 4 7 9
85 13 1 2 4 5
86 15 1 2 4 5
87 14 1 2 4 5
88 13 1 2 4 6
89 15 1 2 4 6
90 14 1 2 4 6
91 20 1 2 3 4
92 6 30 31 34 37
93 7 30 31 34 37
94 8 29 28 30 31
95 9 29 28 30 31
96 11 28 30 31 34
97 12 28 30 31 34
98 9 25 28 30 31
99 15 22 25 28 29
100 15 22 25 28 30
101 2 19 22 25 28
102 17 16 19 22 25
103 18 16 19 22 25
104 19 16 19 22 25
105 17 13 16 19 22
106 18 13 16 19 22
107 19 13 16 19 22
108 17 10 13 16 19
109 18 10 13 16 19
110 19 10 13 16 19
111 17 7 10 13 16
112 18 7 10 13 16
113 19 7 10 13 16
114 17 4 7 10 13
115 18 4 7 10 13
116 19 4 7 10 13
117 2 2 4 7 10
118 15 1 2 4 7
119 20 25 29 28 30

