LAMMPS data file for default_name

8 atoms
7 bonds
12 angles
12 dihedrals
0 impropers

4 atom types
4 bond types
6 angle types
3 dihedral types

-4.8339999999999996 -1.736 xlo xhi
0.29999999999999999 2.5350000000000001 ylo yhi
-1.9790000000000001 0.35799999999999998 zlo zhi

Masses

1 12.01
2 1.008
3 1.008
4 19.0

Pair Coeffs

1 0.10939999991572773 3.3996695084507409
2 0.01570000002623629 2.6495327872602221
3 0.015700000098461422 2.4713530426421655
4 0.060999999861473579 3.1181455140920482

Bond Coeffs

1 335.89999999999998 1.093
2 363.80000000000001 1.3440000000000001
3 337.30000000000001 1.0920000000000001
4 303.10000000000002 1.5349999999999999

Angle Coeffs

1 51.57 107.85004650836595
2 39.18 109.55004723694461
3 46.369999999999997 110.05004745123244
4 39.43 108.3500467226538
5 46.359999999999999 110.07004711602929
6 66.219999999999999 109.41004671857777

Dihedral Coeffs

1 0.15555555600000001 1 3
2 0.19 1 1
3 0.0 1 3

Atoms

1 0 1 0.0 -3.9300000000000002 1.569 -1.2689999999999999
2 0 2 0.0 -3.9260000000000002 0.67700000000000005 -1.9790000000000001
3 0 2 0.0 -3.9860000000000002 2.5350000000000001 -1.873
4 0 2 0.0 -4.8339999999999996 1.5 -0.57799999999999996
5 0 1 0.0 -2.6400000000000001 1.5629999999999999 -0.42899999999999999
6 0 3 0.0 -2.6440000000000001 2.4540000000000002 0.28100000000000003
7 0 3 0.0 -1.736 1.633 -1.121
8 0 4 0.0 -2.5659999999999998 0.29999999999999999 0.35799999999999998

Bonds

1 1 5 6
2 1 5 7
3 3 1 2
4 3 1 3
5 3 1 4
6 2 5 8
7 4 1 5

Angles

1 1 7 5 8
2 2 6 5 7
3 1 6 5 8
4 3 4 1 5
5 4 3 1 4
6 3 3 1 5
7 4 2 1 3
8 4 2 1 4
9 3 2 1 5
10 5 1 5 6
11 5 1 5 7
12 6 1 5 8

Dihedrals

1 1 4 1 5 6
2 1 4 1 5 7
3 2 4 1 5 8
4 3 4 1 5 8
5 1 3 1 5 6
6 1 3 1 5 7
7 2 3 1 5 8
8 3 3 1 5 8
9 1 2 1 5 6
10 1 2 1 5 7
11 2 2 1 5 8
12 3 2 1 5 8

