LAMMPS data file for default_name

13 atoms
13 bonds
19 angles
32 dihedrals
0 impropers

4 atom types
4 bond types
4 angle types
3 dihedral types

-3.504 2.5110000000000001 xlo xhi
-1.778 2.9329999999999998 ylo yhi
0.439 2.5049999999999999 zlo zhi

Masses

1 12.01
2 1.008
3 16.0
4 1.008

Pair Coeffs

1 0.086000000128358844 3.3996695079448309
2 0.015000000064220668 2.5996424587350853
3 0.2104000002486992 3.0664733874581418
4 0.0 0.0

Bond Coeffs

1 369.60000000000002 0.97399999999999998
2 386.10000000000002 1.3620000000000001
3 344.30000000000001 1.087
4 478.39999999999998 1.387

Angle Coeffs

1 48.850000000000001 109.47004685888388
2 48.460000000000001 120.01005126147997
3 69.849999999999994 119.94005128877545
4 67.180000000000007 119.97005135892852

Dihedral Coeffs

1 3.625 -1 2
2 0.90000000000000002 -1 2
3 1.1000000000000001 -1 2

Atoms

1 0 1 0.0 -0.82199999999999995 1.861 1.4019999999999999
2 0 2 0.0 -1.446 2.8109999999999999 1.3120000000000001
3 0 1 0.0 0.60999999999999999 1.931 1.9630000000000001
4 0 2 0.0 1.048 2.9329999999999998 2.286
5 0 1 0.0 1.452 0.64700000000000002 2.0870000000000002
6 0 2 0.0 2.5110000000000001 0.69699999999999995 2.5049999999999999
7 0 1 0.0 0.86099999999999999 -0.70599999999999996 1.6479999999999999
8 0 2 0.0 1.484 -1.6559999999999999 1.738
9 0 1 0.0 -0.57099999999999995 -0.77600000000000002 1.087
10 0 2 0.0 -1.0089999999999999 -1.778 0.76400000000000001
11 0 1 0.0 -1.4139999999999999 0.50700000000000001 0.96699999999999997
12 0 3 0.0 -2.827 0.433 0.439
13 0 4 0.0 -3.504 1.004 1.109

Bonds

1 1 12 13
2 3 9 10
3 3 7 8
4 3 5 6
5 3 3 4
6 3 1 2
7 2 11 12
8 4 9 11
9 4 7 9
10 4 5 7
11 4 3 5
12 4 1 3
13 4 1 11

Angles

1 1 11 12 13
2 2 10 9 11
3 2 8 7 9
4 2 7 9 10
5 2 6 5 7
6 2 5 7 8
7 2 4 3 5
8 2 3 5 6
9 2 2 1 3
10 2 2 1 11
11 2 1 3 4
12 3 9 11 12
13 4 7 9 11
14 4 5 7 9
15 4 3 1 11
16 4 3 5 7
17 4 1 3 5
18 4 1 11 9
19 3 1 11 12

Dihedrals

1 1 10 9 11 12
2 2 9 11 12 13
3 1 8 7 9 10
4 1 8 7 9 11
5 1 6 5 7 8
6 1 6 5 7 9
7 1 5 7 9 10
8 1 11 1 3 4
9 1 4 3 5 6
10 1 4 3 5 7
11 1 3 5 7 8
12 1 2 1 3 4
13 1 2 1 3 5
14 1 2 1 11 9
15 1 2 1 11 12
16 1 1 3 5 6
17 1 1 11 9 10
18 2 1 11 12 13
19 3 7 11 9 10
20 3 5 9 7 8
21 3 3 7 5 6
22 3 1 5 3 4
23 3 2 1 11 3
24 1 7 9 11 12
25 1 11 1 3 5
26 1 5 7 9 11
27 1 3 1 11 9
28 1 3 1 11 12
29 1 3 5 7 9
30 1 1 3 5 7
31 1 1 11 9 7
32 3 1 9 11 12

