LAMMPS data file for default_name

12 atoms
11 bonds
18 angles
25 dihedrals
0 impropers

4 atom types
4 bond types
5 angle types
6 dihedral types

-4.8040000000000003 -0.087999999999999995 xlo xhi
-0.155 3.0550000000000002 ylo yhi
-0.90200000000000002 2.1219999999999999 zlo zhi

Masses

1 12.01
2 1.008
3 12.01
4 1.008

Pair Coeffs

1 0.10939999991572773 3.3996695084507409
2 0.01570000002623629 2.6495327872602221
3 0.086000000128358844 3.3996695079448309
4 0.015000000064220668 2.5996424587350853

Bond Coeffs

1 337.30000000000001 1.0920000000000001
2 344.30000000000001 1.087
3 328.30000000000001 1.508
4 589.70000000000005 1.3240000000000001

Angle Coeffs

1 39.43 108.3500467226538
2 45.659999999999997 117.30005027192722
3 47.030000000000001 110.49004752521418
4 50.039999999999999 120.94005171735114
5 64.329999999999998 123.42005312399351

Dihedral Coeffs

1 0.0 1 2
2 6.6500000000000004 -1 2
3 1.1499999999999999 1 1
4 0.38 -1 3
5 1.8999999999999999 -1 1
6 1.1000000000000001 -1 2

Atoms

1 0 1 0.0 -3.6909999999999998 0.70099999999999996 0.223
2 0 2 0.0 -3.1720000000000002 -0.155 0.76800000000000002
3 0 2 0.0 -3.5529999999999999 0.57499999999999996 -0.90200000000000002
4 0 2 0.0 -4.8040000000000003 0.69299999999999995 0.47299999999999998
5 0 3 0.0 -3.0760000000000001 2.0390000000000001 0.67100000000000004
6 0 4 0.0 -3.718 2.9809999999999999 0.70199999999999996
7 0 3 0.0 -1.6220000000000001 2.0819999999999999 1.1739999999999999
8 0 4 0.0 -1.1870000000000001 3.0550000000000002 1.579
9 0 1 0.0 -0.79200000000000004 0.78700000000000003 1.226
10 0 2 0.0 -0.183 0.68600000000000005 0.26800000000000002
11 0 2 0.0 -1.492 -0.108 1.327
12 0 2 0.0 -0.087999999999999995 0.82299999999999995 2.1219999999999999

Bonds

1 1 9 10
2 1 9 11
3 1 9 12
4 2 7 8
5 2 5 6
6 1 1 2
7 1 1 3
8 1 1 4
9 3 7 9
10 4 5 7
11 3 1 5

Angles

1 1 11 9 12
2 1 10 9 11
3 1 10 9 12
4 2 8 7 9
5 3 7 9 10
6 3 7 9 11
7 3 7 9 12
8 4 6 5 7
9 4 5 7 8
10 3 4 1 5
11 1 3 1 4
12 3 3 1 5
13 1 2 1 3
14 1 2 1 4
15 3 2 1 5
16 2 1 5 6
17 5 5 7 9
18 5 1 5 7

Dihedrals

1 1 8 7 9 10
2 1 8 7 9 11
3 1 8 7 9 12
4 2 6 5 7 8
5 2 6 5 7 9
6 3 5 7 9 10
7 4 5 7 9 10
8 3 5 7 9 11
9 4 5 7 9 11
10 3 5 7 9 12
11 4 5 7 9 12
12 1 4 1 5 6
13 3 4 1 5 7
14 4 4 1 5 7
15 1 3 1 5 6
16 3 3 1 5 7
17 4 3 1 5 7
18 1 2 1 5 6
19 3 2 1 5 7
20 4 2 1 5 7
21 2 1 5 7 8
22 6 5 9 7 8
23 6 7 1 5 6
24 5 1 5 7 9
25 2 1 5 7 9

