LAMMPS data file for default_name

12 atoms
11 bonds
19 angles
21 dihedrals
0 impropers

5 atom types
5 bond types
7 angle types
1 dihedral types

-3.02 1.165 xlo xhi
-1.266 3.3580000000000001 ylo yhi
-1.5800000000000001 2.0 zlo zhi

Masses

1 12.01
2 1.008
3 28.08
4 16.0
5 1.008

Pair Coeffs

1 0.10939999991572773 3.3996695084507409
2 0.01570000002623629 2.6495327872602221
3 0.99 9.999999
4 0.2104000002486992 3.0664733874581418
5 0.0 0.0

Bond Coeffs

1 337.30000000000001 1.0920000000000001
2 369.60000000000002 0.97399999999999998
3 0.0 0.0
4 0.0 0.0
5 0.0 0.0

Angle Coeffs

1 39.43 108.3500467226538
2 0.0 0.0
3 0.0 0.0
4 0.0 0.0
5 0.0 0.0
6 0.0 0.0
7 0.0 0.0

Dihedral Coeffs

1 0.0 1 0

Atoms

1 0 1 0.0 -1.988 2.2759999999999998 1.083
2 0 2 0.0 -3.02 1.8720000000000001 1.3500000000000001
3 0 2 0.0 -2.081 3.3580000000000001 0.73699999999999999
4 0 2 0.0 -1.3109999999999999 2.2280000000000002 2.0
5 0 3 0.0 -1.2230000000000001 1.2050000000000001 -0.34200000000000003
6 0 4 0.0 0.50600000000000001 1.883 -0.78900000000000003
7 0 5 0.0 1.165 1.833 0.10299999999999999
8 0 2 0.0 -2.1360000000000001 1.2709999999999999 -1.5800000000000001
9 0 1 0.0 -1.0629999999999999 -0.63600000000000001 0.248
10 0 2 0.0 -0.61299999999999999 -1.266 -0.58999999999999997
11 0 2 0.0 -2.0950000000000002 -1.04 0.51500000000000001
12 0 2 0.0 -0.38700000000000001 -0.68400000000000005 1.1639999999999999

Bonds

1 1 9 10
2 1 9 11
3 1 9 12
4 2 6 7
5 4 5 8
6 1 1 2
7 1 1 3
8 1 1 4
9 3 5 6
10 5 5 9
11 5 1 5

Angles

1 1 11 9 12
2 1 10 9 11
3 1 10 9 12
4 2 8 5 9
5 3 6 5 8
6 5 5 6 7
7 6 5 9 10
8 6 5 9 11
9 6 5 9 12
10 6 4 1 5
11 1 3 1 4
12 6 3 1 5
13 1 2 1 3
14 1 2 1 4
15 6 2 1 5
16 2 1 5 8
17 4 6 5 9
18 4 1 5 6
19 7 1 5 9

Dihedrals

1 1 8 5 9 10
2 1 8 5 9 11
3 1 8 5 9 12
4 1 7 6 5 8
5 1 7 6 5 9
6 1 6 5 9 10
7 1 6 5 9 11
8 1 6 5 9 12
9 1 4 1 5 6
10 1 4 1 5 8
11 1 4 1 5 9
12 1 3 1 5 6
13 1 3 1 5 8
14 1 3 1 5 9
15 1 2 1 5 6
16 1 2 1 5 8
17 1 2 1 5 9
18 1 1 5 6 7
19 1 1 5 9 10
20 1 1 5 9 11
21 1 1 5 9 12

