LAMMPS data file for default_name

19 atoms
18 bonds
31 angles
38 dihedrals
0 impropers

9 atom types
9 bond types
18 angle types
7 dihedral types

-3.4159999999999999 0.45300000000000001 xlo xhi
-5.2359999999999998 2.7280000000000002 ylo yhi
-1.325 3.0659999999999998 zlo zhi

Masses

1 16.0
2 12.01
3 1.008
4 12.01
5 14.01
6 1.008
7 1.008
8 1.008
9 32.060000000000002

Pair Coeffs

1 0.20999999984182244 2.9599219016446874
2 0.086000000128358844 3.3996695079448309
3 0.014999999991481437 2.5105525875831352
4 0.10939999991572773 3.3996695084507409
5 0.16999999991766696 3.2499985240310356
6 0.015700000004219245 1.0690784617205229
7 0.015700000098461422 2.4713530426421655
8 0.01570000002623629 2.6495327872602221
9 0.25 3.5635948725613571

Bond Coeffs

1 335.89999999999998 1.093
2 225.80000000000001 1.821
3 337.30000000000001 1.0920000000000001
4 303.10000000000002 1.5349999999999999
5 394.10000000000002 1.018
6 320.60000000000002 1.47
7 310.5 1.1123000000000001
8 328.30000000000001 1.508
9 648.0 1.214

Angle Coeffs

1 39.18 109.55004723694461
2 53.659999999999997 109.34004674587327
3 37.939999999999998 99.920043052465033
4 46.369999999999997 110.05004745123244
5 39.43 108.3500467226538
6 46.359999999999999 110.07004711602929
7 77.329999999999998 112.69004846808068
8 41.299999999999997 107.13004597060835
9 49.390000000000001 109.92004733822183
10 66.180000000000007 110.38004707700041
11 47.130000000000003 109.92004733822183
12 63.210000000000001 110.63004747062323
13 46.109999999999999 114.40004902905777
14 66.590000000000003 111.14004751730948
15 47.630000000000003 107.66004625504924
16 63.789999999999999 110.53004742776565
17 54.280000000000001 120.93005188495273
18 68.030000000000001 123.1100525900646

Dihedral Coeffs

1 0.33333333300000001 1 3
2 0.15555555600000001 1 3
3 0.29999999999999999 1 3
4 0.0 -1 2
5 0.80000000000000004 1 1
6 0.080000000000000002 -1 3
7 10.5 -1 2

Atoms

1 0 1 0.0 -0.86599999999999999 2.7280000000000002 -0.0070000000000000001
2 0 2 0.0 -0.496 1.365 -0.54300000000000004
3 0 3 0.0 0.45300000000000001 1.2350000000000001 -1.161
4 0 4 0.0 -1.4490000000000001 0.17399999999999999 -0.33800000000000002
5 0 5 0.0 -2.7909999999999999 0.68400000000000005 0.129
6 0 6 0.0 -3.2090000000000001 1.3740000000000001 -0.63300000000000001
7 0 6 0.0 -2.6640000000000001 1.2250000000000001 1.089
8 0 7 0.0 -1.5720000000000001 -0.38300000000000001 -1.325
9 0 4 0.0 -0.878 -0.78600000000000003 0.72199999999999998
10 0 8 0.0 -0.75600000000000001 -0.23400000000000001 1.7130000000000001
11 0 8 0.0 0.13400000000000001 -1.181 0.378
12 0 4 0.0 -1.861 -1.958 0.89600000000000002
13 0 7 0.0 -1.982 -2.4969999999999999 -0.10100000000000001
14 0 7 0.0 -2.8730000000000002 -1.5549999999999999 1.2330000000000001
15 0 9 0.0 -1.234 -3.1219999999999999 2.1320000000000001
16 0 4 0.0 -2.3999999999999999 -4.4969999999999999 2.2879999999999998
17 0 7 0.0 -2.0139999999999998 -5.2359999999999998 3.0659999999999998
18 0 7 0.0 -2.5030000000000001 -5.0229999999999997 1.282
19 0 7 0.0 -3.4159999999999999 -4.0970000000000004 2.6150000000000002

Bonds

1 1 16 17
2 1 16 18
3 1 16 19
4 1 12 13
5 1 12 14
6 3 9 10
7 3 9 11
8 5 5 6
9 5 5 7
10 1 4 8
11 7 2 3
12 2 15 16
13 2 12 15
14 4 9 12
15 6 4 5
16 4 4 9
17 8 2 4
18 9 1 2

Angles

1 1 18 16 19
2 1 17 16 18
3 1 17 16 19
4 2 15 16 17
5 2 15 16 18
6 2 15 16 19
7 2 14 12 15
8 1 13 12 14
9 2 13 12 15
10 4 11 9 12
11 5 10 9 11
12 4 10 9 12
13 6 9 12 13
14 6 9 12 14
15 6 8 4 9
16 8 6 5 7
17 9 5 4 8
18 11 4 5 6
19 11 4 5 7
20 4 4 9 10
21 4 4 9 11
22 13 3 2 4
23 15 2 4 8
24 17 1 2 3
25 3 12 15 16
26 7 9 12 15
27 10 5 4 9
28 12 4 9 12
29 14 2 4 5
30 16 2 4 9
31 18 1 2 4

Dihedrals

1 1 14 12 15 16
2 1 13 12 15 16
3 1 12 15 16 17
4 1 12 15 16 18
5 1 12 15 16 19
6 2 11 9 12 13
7 2 11 9 12 14
8 2 11 9 12 15
9 2 10 9 12 13
10 2 10 9 12 14
11 2 10 9 12 15
12 2 8 4 9 10
13 2 8 4 9 11
14 2 8 4 9 12
15 3 7 5 4 8
16 3 7 5 4 9
17 3 6 5 4 8
18 3 6 5 4 9
19 2 5 4 9 10
20 2 5 4 9 11
21 2 4 9 12 13
22 2 4 9 12 14
23 4 3 2 4 5
24 4 3 2 4 8
25 4 3 2 4 9
26 3 2 4 5 6
27 3 2 4 5 7
28 2 2 4 9 10
29 2 2 4 9 11
30 5 1 2 4 8
31 6 1 2 4 8
32 7 1 2 3 4
33 1 9 12 15 16
34 2 5 4 9 12
35 2 4 9 12 15
36 2 2 4 9 12
37 4 1 2 4 5
38 4 1 2 4 9

