LAMMPS data file for default_name

18 atoms
18 bonds
30 angles
45 dihedrals
0 impropers

4 atom types
5 bond types
7 angle types
5 dihedral types

-3.0209999999999999 1.901 xlo xhi
-2.004 4.976 ylo yhi
-0.46300000000000002 2.4900000000000002 zlo zhi

Masses

1 12.01
2 1.008
3 12.01
4 1.008

Pair Coeffs

1 0.10939999991572773 3.3996695084507409
2 0.01570000002623629 2.6495327872602221
3 0.086000000128358844 3.3996695079448309
4 0.015000000064220668 2.5996424587350853

Bond Coeffs

1 344.30000000000001 1.087
2 478.39999999999998 1.387
3 337.30000000000001 1.0920000000000001
4 323.5 1.5129999999999999
5 303.10000000000002 1.5349999999999999

Angle Coeffs

1 48.460000000000001 120.01005126147997
2 67.180000000000007 119.97005135892852
3 46.960000000000001 110.15004749409002
4 39.43 108.3500467226538
5 63.840000000000003 120.63005175638003
6 46.369999999999997 110.05004745123244
7 63.25 112.09004821093528

Dihedral Coeffs

1 3.625 -1 2
2 0.0 1 2
3 0.14999999999999999 1 3
4 0.15555555600000001 1 3
5 1.1000000000000001 -1 2

Atoms

1 0 1 0.0 -0.73599999999999999 3.9870000000000001 0.33300000000000002
2 0 2 0.0 -1.1870000000000001 4.976 -0.010999999999999999
3 0 2 0.0 -0.019 3.5979999999999999 -0.46300000000000002
4 0 2 0.0 -0.16800000000000001 4.1449999999999996 1.3089999999999999
5 0 1 0.0 -1.8600000000000001 2.9580000000000002 0.55700000000000005
6 0 2 0.0 -2.5760000000000001 3.343 1.3560000000000001
7 0 2 0.0 -2.4279999999999999 2.79 -0.41699999999999998
8 0 3 0.0 -1.226 1.635 1.024
9 0 3 0.0 0.193 1.6359999999999999 1.619
10 0 4 0.0 0.75600000000000001 2.6190000000000002 1.7470000000000001
11 0 3 0.0 0.85199999999999998 0.31 2.0430000000000001
12 0 4 0.0 1.901 0.312 2.4900000000000002
13 0 3 0.0 0.094 -1.018 1.8600000000000001
14 0 4 0.0 0.58099999999999996 -2.0 2.1739999999999999
15 0 3 0.0 -1.3200000000000001 -1.02 1.2490000000000001
16 0 4 0.0 -1.8779999999999999 -2.004 1.109
17 0 3 0.0 -1.978 0.30599999999999999 0.82499999999999996
18 0 4 0.0 -3.0209999999999999 0.30399999999999999 0.36499999999999999

Bonds

1 1 17 18
2 1 15 16
3 1 13 14
4 1 11 12
5 1 9 10
6 3 5 6
7 3 5 7
8 3 1 2
9 3 1 3
10 3 1 4
11 2 15 17
12 2 13 15
13 2 11 13
14 2 9 11
15 2 8 9
16 2 8 17
17 4 5 8
18 5 1 5

Angles

1 1 16 15 17
2 1 15 17 18
3 1 14 13 15
4 1 13 15 16
5 1 12 11 13
6 1 11 13 14
7 1 10 9 11
8 1 9 11 12
9 1 8 9 10
10 1 8 17 18
11 3 7 5 8
12 4 6 5 7
13 3 6 5 8
14 6 4 1 5
15 4 3 1 4
16 6 3 1 5
17 4 2 1 3
18 4 2 1 4
19 6 2 1 5
20 6 1 5 6
21 6 1 5 7
22 2 13 15 17
23 2 11 13 15
24 2 9 8 17
25 2 9 11 13
26 2 8 9 11
27 2 8 17 15
28 5 5 8 9
29 5 5 8 17
30 7 1 5 8

Dihedrals

1 1 16 15 17 18
2 1 14 13 15 16
3 1 14 13 15 17
4 1 13 15 17 18
5 1 12 11 13 14
6 1 12 11 13 15
7 1 11 13 15 16
8 1 10 9 8 17
9 1 10 9 11 12
10 1 10 9 11 13
11 1 9 8 17 18
12 1 9 11 13 14
13 1 8 9 11 12
14 1 8 17 15 16
15 2 7 5 8 9
16 2 7 5 8 17
17 2 6 5 8 9
18 2 6 5 8 17
19 1 5 8 9 10
20 1 5 8 17 18
21 3 4 1 5 6
22 3 4 1 5 7
23 4 4 1 5 8
24 3 3 1 5 6
25 3 3 1 5 7
26 4 3 1 5 8
27 3 2 1 5 6
28 3 2 1 5 7
29 4 2 1 5 8
30 5 8 15 17 18
31 5 13 17 15 16
32 5 11 15 13 14
33 5 9 13 11 12
34 5 8 11 9 10
35 1 11 9 8 17
36 1 11 13 15 17
37 1 9 8 17 15
38 1 9 11 13 15
39 1 8 9 11 13
40 1 8 17 15 13
41 1 5 8 9 11
42 1 5 8 17 15
43 2 1 5 8 9
44 2 1 5 8 17
45 5 9 17 8 5

