LAMMPS data file for default_name

12 atoms
11 bonds
19 angles
24 dihedrals
0 impropers

5 atom types
5 bond types
8 angle types
6 dihedral types

-4.9029999999999996 -0.252 xlo xhi
-2.242 0.21199999999999999 ylo yhi
-1.069 1.052 zlo zhi

Masses

1 12.01
2 1.008
3 1.008
4 16.0
5 1.008

Pair Coeffs

1 0.10939999991572773 3.3996695084507409
2 0.01570000002623629 2.6495327872602221
3 0.015700000098461422 2.4713530426421655
4 0.2104000002486992 3.0664733874581418
5 0.0 0.0

Bond Coeffs

1 369.60000000000002 0.97399999999999998
2 335.89999999999998 1.093
3 314.10000000000002 1.4259999999999999
4 337.30000000000001 1.0920000000000001
5 303.10000000000002 1.5349999999999999

Angle Coeffs

1 50.969999999999999 109.88004686271258
2 39.18 109.55004723694461
3 47.090000000000003 108.16004646933708
4 46.369999999999997 110.05004745123244
5 39.43 108.3500467226538
6 46.359999999999999 110.07004711602929
7 67.719999999999999 109.4300469563324
8 63.210000000000001 110.63004747062323

Dihedral Coeffs

1 0.16666666699999999 1 3
2 0.15555555600000001 1 3
3 0.25 1 1
4 0.0 1 3
5 0.16 1 3
6 0.14999999999999999 1 3

Atoms

1 0 1 0.0 -3.9350000000000001 -1.498 0.017000000000000001
2 0 2 0.0 -3.855 -2.242 0.878
3 0 2 0.0 -3.9329999999999998 -2.0619999999999998 -0.97399999999999998
4 0 2 0.0 -4.9029999999999996 -0.90500000000000003 0.11600000000000001
5 0 1 0.0 -2.7360000000000002 -0.53300000000000003 0.059999999999999998
6 0 2 0.0 -2.7349999999999999 0.029999999999999999 1.052
7 0 2 0.0 -2.8170000000000002 0.21199999999999999 -0.79900000000000004
8 0 1 0.0 -1.429 -1.335 -0.078
9 0 3 0.0 -1.4330000000000001 -1.8979999999999999 -1.069
10 0 3 0.0 -1.347 -2.0800000000000001 0.78200000000000003
11 0 4 0.0 -0.254 -0.38900000000000001 -0.040000000000000001
12 0 5 0.0 -0.252 0.159 0.92500000000000004

Bonds

1 1 11 12
2 2 8 9
3 2 8 10
4 4 5 6
5 4 5 7
6 4 1 2
7 4 1 3
8 4 1 4
9 3 8 11
10 5 5 8
11 5 1 5

Angles

1 1 10 8 11
2 2 9 8 10
3 1 9 8 11
4 3 8 11 12
5 4 7 5 8
6 5 6 5 7
7 4 6 5 8
8 6 5 8 9
9 6 5 8 10
10 4 4 1 5
11 5 3 1 4
12 4 3 1 5
13 5 2 1 3
14 5 2 1 4
15 4 2 1 5
16 4 1 5 6
17 4 1 5 7
18 7 5 8 11
19 8 1 5 8

Dihedrals

1 1 10 8 11 12
2 1 9 8 11 12
3 2 7 5 8 9
4 2 7 5 8 10
5 3 7 5 8 11
6 4 7 5 8 11
7 2 6 5 8 9
8 2 6 5 8 10
9 3 6 5 8 11
10 4 6 5 8 11
11 3 5 8 11 12
12 5 5 8 11 12
13 6 4 1 5 6
14 6 4 1 5 7
15 5 4 1 5 8
16 6 3 1 5 6
17 6 3 1 5 7
18 5 3 1 5 8
19 6 2 1 5 6
20 6 2 1 5 7
21 5 2 1 5 8
22 2 1 5 8 9
23 2 1 5 8 10
24 2 1 5 8 11

