LAMMPS data file for default_name

18 atoms
17 bonds
31 angles
39 dihedrals
0 impropers

5 atom types
6 bond types
9 angle types
3 dihedral types

-3.1869999999999998 1.1830000000000001 xlo xhi
-2.242 4.375 ylo yhi
-1.657 2.0019999999999998 zlo zhi

Masses

1 12.01
2 1.008
3 28.08
4 16.0
5 1.008

Pair Coeffs

1 0.10939999991572773 3.3996695084507409
2 0.01570000002623629 2.6495327872602221
3 0.99 9.999999 
4 0.2104000002486992 3.0664733874581418
5 0.0 0.0

Bond Coeffs

1 337.30000000000001 1.0920000000000001
2 303.10000000000002 1.5349999999999999
3 369.60000000000002 0.97399999999999998
4 0.0 0.0
5 0.0 0.0
6 0.0 0.0

Angle Coeffs

1 39.43 108.3500467226538
2 46.369999999999997 110.05004745123244
3 0.0 0.0
4 0.0 0.0
5 0.0 0.0
6 0.0 0.0
7 0.0 0.0
8 0.0 0.0
9 0.0 0.0

Dihedral Coeffs

1 0.14999999999999999 1 3
2 0.0 1 0
3 0.15555555600000001 1 3

Atoms

1 0 1 0.0 -2.04 3.7440000000000002 0.59599999999999997
2 0 2 0.0 -2.6339999999999999 3.8439999999999999 -0.371
3 0 2 0.0 -0.97099999999999997 4.1040000000000001 0.42499999999999999
4 0 2 0.0 -2.528 4.375 1.4099999999999999
5 0 1 0.0 -2.016 2.2679999999999998 1.0349999999999999
6 0 2 0.0 -3.0819999999999999 1.9019999999999999 1.2070000000000001
7 0 2 0.0 -1.4199999999999999 2.1680000000000001 2.0019999999999998
8 0 3 0.0 -1.181 1.2010000000000001 -0.35299999999999998
9 0 4 0.0 0.60499999999999998 1.8169999999999999 -0.63500000000000001
10 0 5 0.0 1.1830000000000001 1.7190000000000001 0.307
11 0 2 0.0 -1.9870000000000001 1.339 -1.657
12 0 1 0.0 -1.1479999999999999 -0.66000000000000003 0.192
13 0 2 0.0 -0.66100000000000003 -1.2869999999999999 -0.626
14 0 2 0.0 -0.55000000000000004 -0.76400000000000001 1.157
15 0 1 0.0 -2.5899999999999999 -1.1479999999999999 0.42499999999999999
16 0 2 0.0 -2.573 -2.242 0.746
17 0 2 0.0 -3.1869999999999998 -1.044 -0.54000000000000004
18 0 2 0.0 -3.0760000000000001 -0.52000000000000002 1.2430000000000001

Bonds

1 1 15 16
2 1 15 17
3 1 15 18
4 1 12 13
5 1 12 14
6 3 9 10
7 5 8 11
8 1 5 6
9 1 5 7
10 1 1 2
11 1 1 3
12 1 1 4
13 2 12 15
14 4 8 9
15 6 8 12
16 6 5 8
17 2 1 5

Angles

1 1 17 15 18
2 1 16 15 17
3 1 16 15 18
4 2 14 12 15
5 1 13 12 14
6 2 13 12 15
7 2 12 15 16
8 2 12 15 17
9 2 12 15 18
10 3 11 8 12
11 4 9 8 11
12 6 8 9 10
13 7 8 12 13
14 7 8 12 14
15 7 7 5 8
16 1 6 5 7
17 7 6 5 8
18 3 5 8 11
19 2 4 1 5
20 1 3 1 4
21 2 3 1 5
22 1 2 1 3
23 1 2 1 4
24 2 2 1 5
25 2 1 5 6
26 2 1 5 7
27 5 9 8 12
28 8 8 12 15
29 5 5 8 9
30 9 5 8 12
31 8 1 5 8

Dihedrals

1 1 14 12 15 16
2 1 14 12 15 17
3 1 14 12 15 18
4 1 13 12 15 16
5 1 13 12 15 17
6 1 13 12 15 18
7 2 11 8 12 13
8 2 11 8 12 14
9 2 11 8 12 15
10 2 10 9 8 11
11 2 10 9 8 12
12 2 9 8 12 13
13 2 9 8 12 14
14 3 8 12 15 16
15 3 8 12 15 17
16 3 8 12 15 18
17 2 7 5 8 9
18 2 7 5 8 11
19 2 7 5 8 12
20 2 6 5 8 9
21 2 6 5 8 11
22 2 6 5 8 12
23 2 5 8 9 10
24 2 5 8 12 13
25 2 5 8 12 14
26 1 4 1 5 6
27 1 4 1 5 7
28 3 4 1 5 8
29 1 3 1 5 6
30 1 3 1 5 7
31 3 3 1 5 8
32 1 2 1 5 6
33 1 2 1 5 7
34 3 2 1 5 8
35 2 1 5 8 11
36 2 9 8 12 15
37 2 5 8 12 15
38 2 1 5 8 9
39 2 1 5 8 12

