LAMMPS data file for default_name

23 atoms
22 bonds
40 angles
56 dihedrals
0 impropers

6 atom types
7 bond types
13 angle types
17 dihedral types

-2.9820000000000002 3.4630000000000001 xlo xhi
-2.9780000000000002 3.375 ylo yhi
0.081000000000000003 4.673 zlo zhi

Masses

1 12.01
2 1.008
3 1.008
4 16.0
5 12.01
6 16.0

Pair Coeffs

1 0.10939999991572773 3.3996695084507409
2 0.01570000002623629 2.6495327872602221
3 0.015700000098461422 2.4713530426421655
4 0.17000000010548533 3.0000123432245225
5 0.086000000128358844 3.3996695079448309
6 0.20999999984182244 2.9599219016446874

Bond Coeffs

1 337.30000000000001 1.0920000000000001
2 303.10000000000002 1.5349999999999999
3 648.0 1.214
4 328.30000000000001 1.508
5 411.30000000000001 1.343
6 335.89999999999998 1.093
7 301.5 1.4390000000000001

Angle Coeffs

1 39.43 108.3500467226538
2 46.369999999999997 110.05004745123244
3 68.030000000000001 123.1100525900646
4 47.200000000000003 109.68004677699743
5 63.789999999999999 110.53004742776565
6 75.930000000000007 123.33005291353435
7 69.260000000000005 111.96004809792466
8 50.840000000000003 108.82004686678859
9 39.18 109.55004723694461
10 63.630000000000003 115.1400492316122
11 46.359999999999999 110.07004711602929
12 67.780000000000001 108.42004669535831
13 63.210000000000001 110.63004747062323

Dihedral Coeffs

1 0.14999999999999999 1 3
2 0.80000000000000004 1 1
3 0.080000000000000002 -1 3
4 0.0 -1 2
5 0.15555555600000001 1 3
6 0.383333333 1 3
7 1.3999999999999999 -1 1
8 2.7000000000000002 -1 2
9 0.25 1 1
10 0.0 1 3
11 0.80000000000000004 -1 1
12 0.38300000000000001 1 3
13 0.16 1 3
14 0.20000000000000001 -1 1
15 0.25 -1 2
16 0.17999999999999999 1 3
17 10.5 -1 2

Atoms

1 0 1 0.0 2.214 -2.2770000000000001 1.22
2 0 2 0.0 1.202 -2.6659999999999999 1.571
3 0 2 0.0 3.0379999999999998 -2.9780000000000002 1.581
4 0 2 0.0 2.2269999999999999 -2.2280000000000002 0.081000000000000003
5 0 1 0.0 2.4510000000000001 -0.87 1.7989999999999999
6 0 2 0.0 2.4369999999999998 -0.92100000000000004 2.9380000000000002
7 0 2 0.0 3.4630000000000001 -0.47999999999999998 1.448
8 0 1 0.0 1.343 0.084000000000000005 1.3180000000000001
9 0 2 0.0 1.353 0.14000000000000001 0.17999999999999999
10 0 2 0.0 0.33100000000000002 -0.30299999999999999 1.6699999999999999
11 0 1 0.0 1.611 1.484 1.9019999999999999
12 0 3 0.0 2.6280000000000001 1.839 1.528
13 0 3 0.0 1.6259999999999999 1.4359999999999999 3.0409999999999999
14 0 4 0.0 0.55800000000000005 2.4710000000000001 1.4530000000000001
15 0 5 0.0 -0.76900000000000002 2.2149999999999999 2.125
16 0 6 0.0 -1.6779999999999999 3.375 2.4550000000000001
17 0 1 0.0 -1.119 0.80100000000000005 2.6200000000000001
18 0 2 0.0 -0.16300000000000001 0.249 2.9060000000000001
19 0 2 0.0 -1.6579999999999999 0.22800000000000001 1.7949999999999999
20 0 1 0.0 -2.0289999999999999 0.91500000000000004 3.855
21 0 2 0.0 -2.2959999999999998 -0.126 4.234
22 0 2 0.0 -2.9820000000000002 1.4730000000000001 3.5710000000000002
23 0 2 0.0 -1.4830000000000001 1.4910000000000001 4.673

Bonds

1 1 20 21
2 1 20 22
3 1 20 23
4 1 17 18
5 1 17 19
6 6 11 12
7 6 11 13
8 1 8 9
9 1 8 10
10 1 5 6
11 1 5 7
12 1 1 2
13 1 1 3
14 1 1 4
15 2 17 20
16 3 15 16
17 4 15 17
18 5 14 15
19 7 11 14
20 2 8 11
21 2 5 8
22 2 1 5

Angles

1 1 22 20 23
2 1 21 20 22
3 1 21 20 23
4 2 19 17 20
5 1 18 17 19
6 2 18 17 20
7 2 17 20 21
8 2 17 20 22
9 2 17 20 23
10 4 15 17 18
11 4 15 17 19
12 8 13 11 14
13 9 12 11 13
14 8 12 11 14
15 2 10 8 11
16 1 9 8 10
17 2 9 8 11
18 11 8 11 12
19 11 8 11 13
20 2 7 5 8
21 1 6 5 7
22 2 6 5 8
23 2 5 8 9
24 2 5 8 10
25 2 4 1 5
26 1 3 1 4
27 2 3 1 5
28 1 2 1 3
29 1 2 1 4
30 2 2 1 5
31 2 1 5 6
32 2 1 5 7
33 3 16 15 17
34 5 15 17 20
35 6 14 15 16
36 7 14 15 17
37 10 11 14 15
38 12 8 11 14
39 13 5 8 11
40 13 1 5 8

Dihedrals

1 1 19 17 20 21
2 1 19 17 20 22
3 1 19 17 20 23
4 1 18 17 20 21
5 1 18 17 20 22
6 1 18 17 20 23
7 2 16 15 17 18
8 3 16 15 17 18
9 2 16 15 17 19
10 3 16 15 17 19
11 5 15 17 20 21
12 5 15 17 20 22
13 5 15 17 20 23
14 4 14 15 17 18
15 4 14 15 17 19
16 6 13 11 14 15
17 6 12 11 14 15
18 5 10 8 11 12
19 5 10 8 11 13
20 9 10 8 11 14
21 10 10 8 11 14
22 5 9 8 11 12
23 5 9 8 11 13
24 9 9 8 11 14
25 10 9 8 11 14
26 1 7 5 8 9
27 1 7 5 8 10
28 13 7 5 8 11
29 1 6 5 8 9
30 1 6 5 8 10
31 13 6 5 8 11
32 5 5 8 11 12
33 5 5 8 11 13
34 1 4 1 5 6
35 1 4 1 5 7
36 13 4 1 5 8
37 1 3 1 5 6
38 1 3 1 5 7
39 13 3 1 5 8
40 1 2 1 5 6
41 1 2 1 5 7
42 13 2 1 5 8
43 13 1 5 8 9
44 13 1 5 8 10
45 4 16 15 17 20
46 4 14 15 17 20
47 7 11 14 15 16
48 8 11 14 15 16
49 8 11 14 15 17
50 11 8 11 14 15
51 12 8 11 14 15
52 5 5 8 11 14
53 14 1 5 8 11
54 15 1 5 8 11
55 16 1 5 8 11
56 17 17 16 15 14

