LAMMPS data file for default_name

12 atoms
11 bonds
19 angles
29 dihedrals
0 impropers

5 atom types
5 bond types
7 angle types
5 dihedral types

-0.78700000000000003 3.5339999999999998 xlo xhi
-0.317 3.4990000000000001 ylo yhi
-1.1950000000000001 1.5680000000000001 zlo zhi

Masses

1 12.01
2 1.008
3 16.0
4 1.008
5 1.008

Pair Coeffs

1 0.10939999991572773 3.3996695084507409
2 0.01570000002623629 2.6495327872602221
3 0.2104000002486992 3.0664733874581418
4 0.0 0.0
5 0.015700000098461422 2.4713530426421655

Bond Coeffs

1 337.30000000000001 1.0920000000000001
2 369.60000000000002 0.97399999999999998
3 314.10000000000002 1.4259999999999999
4 335.89999999999998 1.093
5 303.10000000000002 1.5349999999999999

Angle Coeffs

1 39.43 108.3500467226538
2 46.359999999999999 110.07004711602929
3 50.969999999999999 109.88004686271258
4 67.719999999999999 109.4300469563324
5 47.090000000000003 108.16004646933708
6 46.369999999999997 110.05004745123244
7 63.210000000000001 110.63004747062323

Dihedral Coeffs

1 0.15555555600000001 1 3
2 0.16666666699999999 1 3
3 0.25 1 1
4 0.16 1 3
5 0.0 1 3

Atoms

1 0 1 0.0 2.6179999999999999 0.77900000000000003 -0.058999999999999997
2 0 2 0.0 2.6789999999999998 0.84799999999999998 -1.1950000000000001
3 0 2 0.0 2.585 -0.317 0.253
4 0 2 0.0 3.5339999999999998 1.278 0.40100000000000002
5 0 1 0.0 1.3440000000000001 1.4910000000000001 0.43099999999999999
6 0 3 0.0 0.13100000000000001 0.82999999999999996 -0.17899999999999999
7 0 4 0.0 -0.78700000000000003 1.345 0.17399999999999999
8 0 5 0.0 1.2829999999999999 1.4219999999999999 1.5680000000000001
9 0 1 0.0 1.389 2.9710000000000001 0.0080000000000000002
10 0 2 0.0 1.4510000000000001 3.0390000000000001 -1.1279999999999999
11 0 2 0.0 2.3050000000000002 3.4689999999999999 0.46899999999999997
12 0 2 0.0 0.44600000000000001 3.4990000000000001 0.371

Bonds

1 1 9 10
2 1 9 11
3 1 9 12
4 2 6 7
5 4 5 8
6 1 1 2
7 1 1 3
8 1 1 4
9 3 5 6
10 5 5 9
11 5 1 5

Angles

1 1 11 9 12
2 1 10 9 11
3 1 10 9 12
4 2 8 5 9
5 3 6 5 8
6 5 5 6 7
7 6 5 9 10
8 6 5 9 11
9 6 5 9 12
10 6 4 1 5
11 1 3 1 4
12 6 3 1 5
13 1 2 1 3
14 1 2 1 4
15 6 2 1 5
16 2 1 5 8
17 4 6 5 9
18 4 1 5 6
19 7 1 5 9

Dihedrals

1 1 8 5 9 10
2 1 8 5 9 11
3 1 8 5 9 12
4 2 7 6 5 8
5 3 7 6 5 9
6 4 7 6 5 9
7 3 6 5 9 10
8 5 6 5 9 10
9 3 6 5 9 11
10 5 6 5 9 11
11 3 6 5 9 12
12 5 6 5 9 12
13 3 4 1 5 6
14 5 4 1 5 6
15 1 4 1 5 8
16 4 4 1 5 9
17 3 3 1 5 6
18 5 3 1 5 6
19 1 3 1 5 8
20 4 3 1 5 9
21 3 2 1 5 6
22 5 2 1 5 6
23 1 2 1 5 8
24 4 2 1 5 9
25 3 1 5 6 7
26 4 1 5 6 7
27 4 1 5 9 10
28 4 1 5 9 11
29 4 1 5 9 12

