LAMMPS data file for default_name

15 atoms
15 bonds
22 angles
37 dihedrals
0 impropers

6 atom types
7 bond types
8 angle types
4 dihedral types

-2.3340000000000001 4.6139999999999999 xlo xhi
-2.6019999999999999 2.3820000000000001 ylo yhi
0.49099999999999999 2.4569999999999999 zlo zhi

Masses

1 12.01
2 1.008
3 16.0
4 1.008
5 1.008
6 16.0

Pair Coeffs

1 0.086000000128358844 3.3996695079448309
2 0.015000000064220668 2.5996424587350853
3 0.2104000002486992 3.0664733874581418
4 0.0 0.0
5 0.014999999991481437 2.5105525875831352
6 0.20999999984182244 2.9599219016446874

Bond Coeffs

1 310.5 1.1123000000000001
2 648.0 1.214
3 349.69999999999999 1.4870000000000001
4 344.30000000000001 1.087
5 478.39999999999998 1.387
6 369.60000000000002 0.97399999999999998
7 386.10000000000002 1.3620000000000001

Angle Coeffs

1 54.280000000000001 120.93005188495273
2 46.520000000000003 115.1400492316122
3 68.670000000000002 123.44005278879034
4 48.460000000000001 120.01005126147997
5 64.640000000000001 120.1400513744906
6 67.180000000000007 119.97005135892852
7 69.849999999999994 119.94005128877545
8 48.850000000000001 109.47004685888388

Dihedral Coeffs

1 3.625 -1 2
2 0.90000000000000002 -1 2
3 10.5 -1 2
4 1.1000000000000001 -1 2

Atoms

1 0 1 0.0 0.81799999999999995 1.3220000000000001 0.97199999999999998
2 0 2 0.0 0.40300000000000002 2.3820000000000001 0.89900000000000002
3 0 1 0.0 2.3290000000000002 1.097 1.163
4 0 2 0.0 3.0350000000000001 1.9890000000000001 1.2330000000000001
5 0 1 0.0 2.8849999999999998 -0.33600000000000002 1.2509999999999999
6 0 3 0.0 4.3689999999999998 -0.56100000000000005 1.389
7 0 4 0.0 4.6139999999999999 -0.73599999999999999 2.4569999999999999
8 0 1 0.0 1.9339999999999999 -1.542 1.165
9 0 2 0.0 2.3490000000000002 -2.6019999999999999 1.234
10 0 1 0.0 0.42499999999999999 -1.3180000000000001 0.97799999999999998
11 0 2 0.0 -0.28000000000000003 -2.21 0.90600000000000003
12 0 1 0.0 -0.13 0.112 0.87
13 0 1 0.0 -1.635 0.32500000000000001 0.64300000000000002
14 0 5 0.0 -2.3340000000000001 -0.57299999999999995 0.57599999999999996
15 0 6 0.0 -2.1829999999999998 1.722 0.49099999999999999

Bonds

1 1 13 14
2 4 10 11
3 4 8 9
4 6 6 7
5 4 3 4
6 4 1 2
7 2 13 15
8 3 12 13
9 5 10 12
10 5 8 10
11 7 5 6
12 5 5 8
13 5 3 5
14 5 1 3
15 5 1 12

Angles

1 1 14 13 15
2 2 12 13 14
3 4 11 10 12
4 4 9 8 10
5 4 8 10 11
6 8 5 6 7
7 4 5 8 9
8 4 4 3 5
9 4 2 1 3
10 4 2 1 12
11 4 1 3 4
12 3 12 13 15
13 5 10 12 13
14 6 8 10 12
15 7 6 5 8
16 6 5 8 10
17 6 3 1 12
18 7 3 5 6
19 6 3 5 8
20 6 1 3 5
21 6 1 12 10
22 5 1 12 13

Dihedrals

1 1 11 10 12 13
2 1 10 12 13 14
3 1 9 8 10 11
4 1 9 8 10 12
5 2 7 6 5 8
6 1 6 5 8 9
7 1 5 8 10 11
8 1 12 1 3 4
9 1 4 3 5 6
10 1 4 3 5 8
11 2 3 5 6 7
12 1 3 5 8 9
13 1 2 1 3 4
14 1 2 1 3 5
15 1 2 1 12 10
16 1 2 1 12 13
17 1 1 12 10 11
18 1 1 12 13 14
19 3 12 14 13 15
20 4 8 12 10 11
21 4 5 10 8 9
22 4 1 5 3 4
23 4 2 1 12 3
24 1 10 12 13 15
25 1 8 10 12 13
26 1 6 5 8 10
27 1 12 1 3 5
28 1 5 8 10 12
29 1 3 1 12 10
30 1 3 1 12 13
31 1 3 5 8 10
32 1 1 3 5 6
33 1 1 3 5 8
34 1 1 12 10 8
35 1 1 12 13 15
36 4 13 1 12 10
37 4 3 8 5 6

