LAMMPS data file for default_name

20 atoms
19 bonds
34 angles
55 dihedrals
0 impropers

8 atom types
8 bond types
13 angle types
13 dihedral types

-0.60399999999999998 6.2679999999999998 xlo xhi
-0.51500000000000001 3.2440000000000002 ylo yhi
-2.6190000000000002 1.51 zlo zhi

Masses

1 16.0
2 1.008
3 12.01
4 1.008
5 1.008
6 12.01
7 1.008
8 16.0

Pair Coeffs

1 0.2104000002486992 3.0664733874581418
2 0.0 0.0
3 0.10939999991572773 3.3996695084507409
4 0.015700000098461422 2.4713530426421655
5 0.01570000002623629 2.6495327872602221
6 0.086000000128358844 3.3996695079448309
7 0.014999999991481437 2.5105525875831352
8 0.20999999984182244 2.9599219016446874

Bond Coeffs

1 310.5 1.1123000000000001
2 648.0 1.214
3 337.30000000000001 1.0920000000000001
4 328.30000000000001 1.508
5 303.10000000000002 1.5349999999999999
6 335.89999999999998 1.093
7 369.60000000000002 0.97399999999999998
8 314.10000000000002 1.4259999999999999

Angle Coeffs

1 54.280000000000001 120.93005188495273
2 47.200000000000003 109.68004677699743
3 39.43 108.3500467226538
4 46.109999999999999 114.40004902905777
5 68.030000000000001 123.1100525900646
6 46.369999999999997 110.05004745123244
7 63.789999999999999 110.53004742776565
8 63.210000000000001 110.63004747062323
9 46.359999999999999 110.07004711602929
10 39.18 109.55004723694461
11 47.090000000000003 108.16004646933708
12 50.969999999999999 109.88004686271258
13 67.719999999999999 109.4300469563324

Dihedral Coeffs

1 0.0 -1 2
2 0.80000000000000004 1 1
3 0.080000000000000002 -1 3
4 0.14999999999999999 1 3
5 0.15555555600000001 1 3
6 0.16 1 3
7 0.20000000000000001 -1 1
8 0.25 -1 2
9 0.17999999999999999 1 3
10 0.16666666699999999 1 3
11 0.25 1 1
12 0.0 1 3
13 10.5 -1 2

Atoms

1 0 1 0.0 -0.27200000000000002 2.016 -0.39800000000000002
2 0 2 0.0 -0.60399999999999998 2.3999999999999999 0.58899999999999997
3 0 3 0.0 0.86299999999999999 1.0389999999999999 -0.20100000000000001
4 0 4 0.0 1.2070000000000001 0.64500000000000002 -1.214
5 0 4 0.0 0.50900000000000001 0.17000000000000001 0.44500000000000001
6 0 3 0.0 2.0390000000000001 1.7490000000000001 0.49299999999999999
7 0 5 0.0 1.7090000000000001 2.1440000000000001 1.51
8 0 5 0.0 2.3980000000000001 2.6150000000000002 -0.157
9 0 3 0.0 3.1869999999999998 0.73999999999999999 0.67300000000000004
10 0 5 0.0 2.843 -0.129 1.325
11 0 5 0.0 4.0780000000000003 1.2589999999999999 1.1599999999999999
12 0 3 0.0 3.5859999999999999 0.22 -0.71899999999999997
13 0 5 0.0 2.6930000000000001 -0.29799999999999999 -1.2030000000000001
14 0 5 0.0 4.4509999999999996 -0.51500000000000001 -0.622
15 0 3 0.0 4.0119999999999996 1.421 -1.581
16 0 5 0.0 3.1379999999999999 2.1499999999999999 -1.667
17 0 5 0.0 4.3140000000000001 1.0600000000000001 -2.6190000000000002
18 0 6 0.0 5.202 2.129 -0.90800000000000003
19 0 7 0.0 6.2679999999999998 1.8740000000000001 -1.222
20 0 8 0.0 4.952 3.2440000000000002 0.079000000000000001

Bonds

1 1 18 19
2 3 15 16
3 3 15 17
4 3 12 13
5 3 12 14
6 3 9 10
7 3 9 11
8 3 6 7
9 3 6 8
10 6 3 4
11 6 3 5
12 7 1 2
13 2 18 20
14 4 15 18
15 5 12 15
16 5 9 12
17 5 6 9
18 5 3 6
19 8 1 3

Angles

1 1 19 18 20
2 2 17 15 18
3 3 16 15 17
4 2 16 15 18
5 4 15 18 19
6 6 14 12 15
7 3 13 12 14
8 6 13 12 15
9 6 12 15 16
10 6 12 15 17
11 6 11 9 12
12 3 10 9 11
13 6 10 9 12
14 6 9 12 13
15 6 9 12 14
16 6 8 6 9
17 3 7 6 8
18 6 7 6 9
19 6 6 9 10
20 6 6 9 11
21 9 5 3 6
22 10 4 3 5
23 9 4 3 6
24 6 3 6 7
25 6 3 6 8
26 11 2 1 3
27 12 1 3 4
28 12 1 3 5
29 5 15 18 20
30 7 12 15 18
31 8 9 12 15
32 8 6 9 12
33 8 3 6 9
34 13 1 3 6

Dihedrals

1 1 17 15 18 19
2 2 17 15 18 20
3 3 17 15 18 20
4 1 16 15 18 19
5 2 16 15 18 20
6 3 16 15 18 20
7 4 14 12 15 16
8 4 14 12 15 17
9 5 14 12 15 18
10 4 13 12 15 16
11 4 13 12 15 17
12 5 13 12 15 18
13 1 12 15 18 19
14 4 11 9 12 13
15 4 11 9 12 14
16 6 11 9 12 15
17 4 10 9 12 13
18 4 10 9 12 14
19 6 10 9 12 15
20 6 9 12 15 16
21 6 9 12 15 17
22 4 8 6 9 10
23 4 8 6 9 11
24 6 8 6 9 12
25 4 7 6 9 10
26 4 7 6 9 11
27 6 7 6 9 12
28 6 6 9 12 13
29 6 6 9 12 14
30 5 5 3 6 7
31 5 5 3 6 8
32 5 5 3 6 9
33 5 4 3 6 7
34 5 4 3 6 8
35 5 4 3 6 9
36 6 3 6 9 10
37 6 3 6 9 11
38 10 2 1 3 4
39 10 2 1 3 5
40 11 2 1 3 6
41 6 2 1 3 6
42 11 1 3 6 7
43 12 1 3 6 7
44 11 1 3 6 8
45 12 1 3 6 8
46 13 15 19 18 20
47 1 12 15 18 20
48 5 9 12 15 18
49 7 6 9 12 15
50 8 6 9 12 15
51 9 6 9 12 15
52 7 3 6 9 12
53 8 3 6 9 12
54 9 3 6 9 12
55 5 1 3 6 9

