LAMMPS data file for default_name

12 atoms
11 bonds
18 angles
23 dihedrals
0 impropers

8 atom types
8 bond types
13 angle types
6 dihedral types

-2.8119999999999998 0.73499999999999999 xlo xhi
-1.607 2.4460000000000002 ylo yhi
-1.107 2.0369999999999999 zlo zhi

Masses

1 12.01
2 1.008
3 14.01
4 1.008
5 1.008
6 12.01
7 1.008
8 16.0

Pair Coeffs

1 0.10939999991572773 3.3996695084507409
2 0.01570000002623629 2.6495327872602221
3 0.16999999991766696 3.2499985240310356
4 0.015700000004219245 1.0690784617205229
5 0.015700000098461422 2.4713530426421655
6 0.086000000128358844 3.3996695079448309
7 0.014999999991481437 2.5105525875831352
8 0.20999999984182244 2.9599219016446874

Bond Coeffs

1 310.5 1.1123000000000001
2 648.0 1.214
3 394.10000000000002 1.018
4 320.60000000000002 1.47
5 335.89999999999998 1.093
6 328.30000000000001 1.508
7 337.30000000000001 1.0920000000000001
8 303.10000000000002 1.5349999999999999

Angle Coeffs

1 54.280000000000001 120.93005188495273
2 47.630000000000003 107.66004625504924
3 41.299999999999997 107.13004597060835
4 49.390000000000001 109.92004733822183
5 66.590000000000003 111.14004751730948
6 47.130000000000003 109.92004733822183
7 46.109999999999999 114.40004902905777
8 68.030000000000001 123.1100525900646
9 46.369999999999997 110.05004745123244
10 39.43 108.3500467226538
11 66.180000000000007 110.38004707700041
12 46.359999999999999 110.07004711602929
13 63.789999999999999 110.53004742776565

Dihedral Coeffs

1 0.0 -1 2
2 0.80000000000000004 1 1
3 0.080000000000000002 -1 3
4 0.29999999999999999 1 3
5 0.15555555600000001 1 3
6 10.5 -1 2

Atoms

1 0 1 0.0 -1.5600000000000001 -0.94099999999999995 1.0580000000000001
2 0 2 0.0 -2.4830000000000001 -1.607 0.98799999999999999
3 0 2 0.0 -1.587 -0.35799999999999998 2.0369999999999999
4 0 2 0.0 -0.622 -1.587 1.026
5 0 1 0.0 -1.548 0.042999999999999997 -0.127
6 0 3 0.0 -2.79 0.90100000000000002 -0.083000000000000004
7 0 4 0.0 -2.7770000000000001 1.6120000000000001 -0.93500000000000005
8 0 4 0.0 -2.8119999999999998 1.468 0.87
9 0 5 0.0 -1.522 -0.53900000000000003 -1.107
10 0 6 0.0 -0.30399999999999999 0.94599999999999995 -0.031
11 0 7 0.0 0.73499999999999999 0.47999999999999998 0.028000000000000001
12 0 8 0.0 -0.46400000000000002 2.4460000000000002 0.017000000000000001

Bonds

1 1 10 11
2 3 6 7
3 3 6 8
4 5 5 9
5 7 1 2
6 7 1 3
7 7 1 4
8 2 10 12
9 4 5 6
10 6 5 10
11 8 1 5

Angles

1 1 11 10 12
2 2 9 5 10
3 3 7 6 8
4 4 6 5 9
5 6 5 6 7
6 6 5 6 8
7 7 5 10 11
8 9 4 1 5
9 10 3 1 4
10 9 3 1 5
11 10 2 1 3
12 10 2 1 4
13 9 2 1 5
14 12 1 5 9
15 5 6 5 10
16 8 5 10 12
17 11 1 5 6
18 13 1 5 10

Dihedrals

1 1 9 5 10 11
2 2 9 5 10 12
3 3 9 5 10 12
4 4 8 6 5 9
5 4 8 6 5 10
6 4 7 6 5 9
7 4 7 6 5 10
8 1 6 5 10 11
9 5 4 1 5 6
10 5 4 1 5 9
11 5 4 1 5 10
12 5 3 1 5 6
13 5 3 1 5 9
14 5 3 1 5 10
15 5 2 1 5 6
16 5 2 1 5 9
17 5 2 1 5 10
18 4 1 5 6 7
19 4 1 5 6 8
20 1 1 5 10 11
21 6 5 11 10 12
22 1 6 5 10 12
23 1 1 5 10 12

