LAMMPS data file for default_name

21 atoms
21 bonds
36 angles
54 dihedrals
0 impropers

4 atom types
5 bond types
8 angle types
6 dihedral types

-3.569 1.885 xlo xhi
-2.0670000000000002 5.2320000000000002 ylo yhi
-1.099 2.3220000000000001 zlo zhi

Masses

1 12.01
2 1.008
3 12.01
4 1.008

Pair Coeffs

1 0.10939999991572773 3.3996695084507409
2 0.01570000002623629 2.6495327872602221
3 0.086000000128358844 3.3996695079448309
4 0.015000000064220668 2.5996424587350853

Bond Coeffs

1 344.30000000000001 1.087
2 478.39999999999998 1.387
3 337.30000000000001 1.0920000000000001
4 303.10000000000002 1.5349999999999999
5 323.5 1.5129999999999999

Angle Coeffs

1 48.460000000000001 120.01005126147997
2 67.180000000000007 119.97005135892852
3 39.43 108.3500467226538
4 63.25 112.09004821093528
5 46.369999999999997 110.05004745123244
6 46.960000000000001 110.15004749409002
7 63.840000000000003 120.63005175638003
8 63.210000000000001 110.63004747062323

Dihedral Coeffs

1 3.625 -1 2
2 0.15555555600000001 1 3
3 0.0 1 2
4 0.14999999999999999 1 3
5 0.16 1 3
6 1.1000000000000001 -1 2

Atoms

1 0 1 0.0 -0.42299999999999999 4.1689999999999996 0.442
2 0 2 0.0 -0.0050000000000000001 3.7290000000000001 -0.52200000000000002
3 0 2 0.0 0.39400000000000002 4.1849999999999996 1.2370000000000001
4 0 2 0.0 -0.78600000000000003 5.2320000000000002 0.248
5 0 1 0.0 -1.6000000000000001 3.3050000000000002 0.93400000000000005
6 0 2 0.0 -2.0179999999999998 3.746 1.8979999999999999
7 0 1 0.0 -2.7050000000000001 3.2650000000000001 -0.13800000000000001
8 0 2 0.0 -3.569 2.617 0.22600000000000001
9 0 2 0.0 -2.2799999999999998 2.823 -1.099
10 0 2 0.0 -3.0800000000000001 4.3220000000000001 -0.33900000000000002
11 0 3 0.0 -1.109 1.871 1.1970000000000001
12 0 3 0.0 0.32200000000000001 1.631 1.708
13 0 4 0.0 1.008 2.516 1.9199999999999999
14 0 3 0.0 0.82799999999999996 0.19400000000000001 1.9330000000000001
15 0 4 0.0 1.885 0.016 2.3220000000000001
16 0 3 0.0 -0.091999999999999998 -1.0029999999999999 1.6279999999999999
17 0 4 0.0 0.28199999999999997 -2.0670000000000002 1.7969999999999999
18 0 3 0.0 -1.514 -0.76300000000000001 1.089
19 0 4 0.0 -2.1930000000000001 -1.649 0.85399999999999998
20 0 3 0.0 -2.02 0.67400000000000004 0.86599999999999999
21 0 4 0.0 -3.0680000000000001 0.85299999999999998 0.45600000000000002

Bonds

1 1 20 21
2 1 18 19
3 1 16 17
4 1 14 15
5 1 12 13
6 3 7 8
7 3 7 9
8 3 7 10
9 3 5 6
10 3 1 2
11 3 1 3
12 3 1 4
13 2 18 20
14 2 16 18
15 2 14 16
16 2 12 14
17 2 11 12
18 2 11 20
19 4 5 7
20 5 5 11
21 4 1 5

Angles

1 1 19 18 20
2 1 18 20 21
3 1 17 16 18
4 1 16 18 19
5 1 15 14 16
6 1 14 16 17
7 1 13 12 14
8 1 12 14 15
9 1 11 12 13
10 1 11 20 21
11 3 9 7 10
12 3 8 7 9
13 3 8 7 10
14 5 6 5 7
15 6 6 5 11
16 5 5 7 8
17 5 5 7 9
18 5 5 7 10
19 5 4 1 5
20 3 3 1 4
21 5 3 1 5
22 3 2 1 3
23 3 2 1 4
24 5 2 1 5
25 5 1 5 6
26 2 16 18 20
27 2 14 16 18
28 2 12 11 20
29 2 12 14 16
30 2 11 12 14
31 2 11 20 18
32 4 7 5 11
33 7 5 11 12
34 7 5 11 20
35 8 1 5 7
36 4 1 5 11

Dihedrals

1 1 19 18 20 21
2 1 17 16 18 19
3 1 17 16 18 20
4 1 16 18 20 21
5 1 15 14 16 17
6 1 15 14 16 18
7 1 14 16 18 19
8 1 13 12 11 20
9 1 13 12 14 15
10 1 13 12 14 16
11 1 12 11 20 21
12 1 12 14 16 17
13 1 11 12 14 15
14 1 11 20 18 19
15 2 10 7 5 11
16 2 9 7 5 11
17 2 8 7 5 11
18 4 6 5 7 8
19 4 6 5 7 9
20 4 6 5 7 10
21 3 6 5 11 12
22 3 6 5 11 20
23 1 5 11 12 13
24 1 5 11 20 21
25 4 4 1 5 6
26 5 4 1 5 7
27 2 4 1 5 11
28 4 3 1 5 6
29 5 3 1 5 7
30 2 3 1 5 11
31 4 2 1 5 6
32 5 2 1 5 7
33 2 2 1 5 11
34 5 1 5 7 8
35 5 1 5 7 9
36 5 1 5 7 10
37 6 11 18 20 21
38 6 16 20 18 19
39 6 14 18 16 17
40 6 12 16 14 15
41 6 11 14 12 13
42 1 14 12 11 20
43 1 14 16 18 20
44 1 12 11 20 18
45 1 12 14 16 18
46 1 11 12 14 16
47 1 11 20 18 16
48 3 7 5 11 12
49 3 7 5 11 20
50 1 5 11 12 14
51 1 5 11 20 18
52 3 1 5 11 12
53 3 1 5 11 20
54 6 12 20 11 5

