LAMMPS data file for default_name

18 atoms
17 bonds
30 angles
41 dihedrals
0 impropers

8 atom types
8 bond types
14 angle types
8 dihedral types

-3.3889999999999998 0.91800000000000004 xlo xhi
-2.948 2.681 ylo yhi
-1.373 1.7410000000000001 zlo zhi

Masses

1 16.0
2 12.01
3 1.008
4 12.01
5 14.01
6 1.008
7 1.008
8 1.008

Pair Coeffs

1 0.20999999984182244 2.9599219016446874
2 0.086000000128358844 3.3996695079448309
3 0.014999999991481437 2.5105525875831352
4 0.10939999991572773 3.3996695084507409
5 0.16999999991766696 3.2499985240310356
6 0.015700000004219245 1.0690784617205229
7 0.015700000098461422 2.4713530426421655
8 0.01570000002623629 2.6495327872602221

Bond Coeffs

1 337.30000000000001 1.0920000000000001
2 303.10000000000002 1.5349999999999999
3 394.10000000000002 1.018
4 320.60000000000002 1.47
5 335.89999999999998 1.093
6 310.5 1.1123000000000001
7 328.30000000000001 1.508
8 648.0 1.214

Angle Coeffs

1 39.43 108.3500467226538
2 63.210000000000001 110.63004747062323
3 46.369999999999997 110.05004745123244
4 46.359999999999999 110.07004711602929
5 41.299999999999997 107.13004597060835
6 49.390000000000001 109.92004733822183
7 66.180000000000007 110.38004707700041
8 47.130000000000003 109.92004733822183
9 46.109999999999999 114.40004902905777
10 66.590000000000003 111.14004751730948
11 47.630000000000003 107.66004625504924
12 63.789999999999999 110.53004742776565
13 54.280000000000001 120.93005188495273
14 68.030000000000001 123.1100525900646

Dihedral Coeffs

1 0.16 1 3
2 0.14999999999999999 1 3
3 0.15555555600000001 1 3
4 0.29999999999999999 1 3
5 0.0 -1 2
6 0.80000000000000004 1 1
7 0.080000000000000002 -1 3
8 10.5 -1 2

Atoms

1 0 1 0.0 -0.70299999999999996 2.681 0.0040000000000000001
2 0 2 0.0 -0.36399999999999999 1.21 -0.034000000000000002
3 0 3 0.0 0.69299999999999995 0.86199999999999999 0.21299999999999999
4 0 4 0.0 -1.4710000000000001 0.17299999999999999 -0.29299999999999998
5 0 5 0.0 -2.8199999999999998 0.80300000000000005 -0.037999999999999999
6 0 6 0.0 -2.9649999999999999 1.6679999999999999 -0.71799999999999997
7 0 6 0.0 -2.871 1.147 1.016
8 0 7 0.0 -1.413 -0.187 -1.373
9 0 4 0.0 -1.27 -1.0149999999999999 0.66400000000000003
10 0 8 0.0 -1.329 -0.64600000000000002 1.7410000000000001
11 0 4 0.0 0.11700000000000001 -1.6359999999999999 0.41399999999999998
12 0 8 0.0 0.17699999999999999 -2.0110000000000001 -0.66100000000000003
13 0 8 0.0 0.28399999999999997 -2.5070000000000001 1.131
14 0 8 0.0 0.91800000000000004 -0.84199999999999997 0.58499999999999996
15 0 4 0.0 -2.3660000000000001 -2.0670000000000002 0.42099999999999999
16 0 8 0.0 -2.2109999999999999 -2.948 1.129
17 0 8 0.0 -2.3039999999999998 -2.4300000000000002 -0.65800000000000003
18 0 8 0.0 -3.3889999999999998 -1.601 0.60899999999999999

Bonds

1 1 15 16
2 1 15 17
3 1 15 18
4 1 11 12
5 1 11 13
6 1 11 14
7 1 9 10
8 3 5 6
9 3 5 7
10 5 4 8
11 6 2 3
12 2 9 11
13 2 9 15
14 4 4 5
15 2 4 9
16 7 2 4
17 8 1 2

Angles

1 1 17 15 18
2 1 16 15 17
3 1 16 15 18
4 1 13 11 14
5 1 12 11 13
6 1 12 11 14
7 3 10 9 11
8 3 10 9 15
9 3 9 11 12
10 3 9 11 13
11 3 9 11 14
12 3 9 15 16
13 3 9 15 17
14 3 9 15 18
15 4 8 4 9
16 5 6 5 7
17 6 5 4 8
18 8 4 5 6
19 8 4 5 7
20 3 4 9 10
21 9 3 2 4
22 11 2 4 8
23 13 1 2 3
24 2 11 9 15
25 7 5 4 9
26 2 4 9 11
27 2 4 9 15
28 10 2 4 5
29 12 2 4 9
30 14 1 2 4

Dihedrals

1 1 14 11 9 15
2 1 13 11 9 15
3 1 12 11 9 15
4 1 11 9 15 16
5 1 11 9 15 17
6 1 11 9 15 18
7 2 10 9 11 12
8 2 10 9 11 13
9 2 10 9 11 14
10 2 10 9 15 16
11 2 10 9 15 17
12 2 10 9 15 18
13 3 8 4 9 10
14 3 8 4 9 11
15 3 8 4 9 15
16 4 7 5 4 8
17 4 7 5 4 9
18 4 6 5 4 8
19 4 6 5 4 9
20 3 5 4 9 10
21 1 4 9 11 12
22 1 4 9 11 13
23 1 4 9 11 14
24 1 4 9 15 16
25 1 4 9 15 17
26 1 4 9 15 18
27 5 3 2 4 5
28 5 3 2 4 8
29 5 3 2 4 9
30 4 2 4 5 6
31 4 2 4 5 7
32 3 2 4 9 10
33 6 1 2 4 8
34 7 1 2 4 8
35 8 1 2 3 4
36 3 5 4 9 11
37 3 5 4 9 15
38 3 2 4 9 11
39 3 2 4 9 15
40 5 1 2 4 5
41 5 1 2 4 9

