LAMMPS data file for default_name

12 atoms
12 bonds
18 angles
30 dihedrals
0 impropers

2 atom types
2 bond types
2 angle types
2 dihedral types

-1.722 3.0720000000000001 xlo xhi
-2.476 1.804 ylo yhi
1.0 2.27 zlo zhi

Masses

1 12.01
2 1.008

Pair Coeffs

1 0.086000000128358844 3.3996695079448309
2 0.015000000064220668 2.5996424587350853

Bond Coeffs

1 344.30000000000001 1.087
2 478.39999999999998 1.387

Angle Coeffs

1 48.460000000000001 120.01005126147997
2 67.180000000000007 119.97005135892852

Dihedral Coeffs

1 3.625 -1 2
2 1.1000000000000001 -1 2

Atoms

1 0 1 0.0 -0.064000000000000001 0.85299999999999998 1.6279999999999999
2 0 2 0.0 -0.63400000000000001 1.7709999999999999 1.623
3 0 1 0.0 1.2889999999999999 0.872 1.986
4 0 2 0.0 1.7629999999999999 1.804 2.258
5 0 1 0.0 2.028 -0.316 1.9930000000000001
6 0 2 0.0 3.0720000000000001 -0.30199999999999999 2.27
7 0 1 0.0 1.4139999999999999 -1.5249999999999999 1.6419999999999999
8 0 2 0.0 1.984 -2.4420000000000002 1.647
9 0 1 0.0 0.060999999999999999 -1.544 1.2829999999999999
10 0 2 0.0 -0.41299999999999998 -2.476 1.012
11 0 1 0.0 -0.67800000000000005 -0.35499999999999998 1.276
12 0 2 0.0 -1.722 -0.36899999999999999 1.0

Bonds

1 1 11 12
2 1 9 10
3 1 7 8
4 1 5 6
5 1 3 4
6 1 1 2
7 2 9 11
8 2 7 9
9 2 5 7
10 2 3 5
11 2 1 3
12 2 1 11

Angles

1 1 10 9 11
2 1 9 11 12
3 1 8 7 9
4 1 7 9 10
5 1 6 5 7
6 1 5 7 8
7 1 4 3 5
8 1 3 5 6
9 1 2 1 3
10 1 2 1 11
11 1 1 3 4
12 1 1 11 12
13 2 7 9 11
14 2 5 7 9
15 2 3 1 11
16 2 3 5 7
17 2 1 3 5
18 2 1 11 9

Dihedrals

1 1 10 9 11 12
2 1 8 7 9 10
3 1 8 7 9 11
4 1 7 9 11 12
5 1 6 5 7 8
6 1 6 5 7 9
7 1 5 7 9 10
8 1 11 1 3 4
9 1 4 3 5 6
10 1 4 3 5 7
11 1 3 1 11 12
12 1 3 5 7 8
13 1 2 1 3 4
14 1 2 1 3 5
15 1 2 1 11 9
16 1 2 1 11 12
17 1 1 3 5 6
18 1 1 11 9 10
19 2 1 9 11 12
20 2 7 11 9 10
21 2 5 9 7 8
22 2 3 7 5 6
23 2 1 5 3 4
24 2 2 1 11 3
25 1 11 1 3 5
26 1 5 7 9 11
27 1 3 1 11 9
28 1 3 5 7 9
29 1 1 3 5 7
30 1 1 11 9 7

