LAMMPS data file for default_name

18 atoms
18 bonds
30 angles
42 dihedrals
0 impropers

4 atom types
4 bond types
5 angle types
3 dihedral types

-2.1059999999999999 4.9829999999999997 xlo xhi
-1.8919999999999999 2.984 ylo yhi
0.031 2.4300000000000002 zlo zhi

Masses

1 12.01
2 1.008
3 12.01
4 1.008

Pair Coeffs

1 0.086000000128358844 3.3996695079448309
2 0.015000000064220668 2.5996424587350853
3 0.10939999991572773 3.3996695084507409
4 0.01570000002623629 2.6495327872602221

Bond Coeffs

1 337.30000000000001 1.0920000000000001
2 323.5 1.5129999999999999
3 344.30000000000001 1.087
4 478.39999999999998 1.387

Angle Coeffs

1 39.43 108.3500467226538
2 46.960000000000001 110.15004749409002
3 48.460000000000001 120.01005126147997
4 63.840000000000003 120.63005175638003
5 67.180000000000007 119.97005135892852

Dihedral Coeffs

1 3.625 -1 2
2 0.0 1 2
3 1.1000000000000001 -1 2

Atoms

1 0 1 0.0 0.53700000000000003 1.7989999999999999 1.022
2 0 2 0.0 -0.122 2.7280000000000002 0.96799999999999997
3 0 1 0.0 2.0659999999999998 1.9470000000000001 1.141
4 0 2 0.0 2.5379999999999998 2.984 1.1719999999999999
5 0 1 0.0 2.9569999999999999 0.69299999999999995 1.2290000000000001
6 0 3 0.0 4.4859999999999998 0.83699999999999997 1.3660000000000001
7 0 4 0.0 4.8639999999999999 1.6220000000000001 0.63200000000000001
8 0 4 0.0 4.9829999999999997 -0.16400000000000001 1.1419999999999999
9 0 4 0.0 4.742 1.157 2.4300000000000002
10 0 1 0.0 2.3220000000000001 -0.70699999999999996 1.131
11 0 2 0.0 2.9830000000000001 -1.6339999999999999 1.1559999999999999
12 0 1 0.0 0.79300000000000004 -0.85499999999999998 1.0109999999999999
13 0 2 0.0 0.32400000000000001 -1.8919999999999999 0.95099999999999996
14 0 1 0.0 -0.10299999999999999 0.39900000000000002 0.98499999999999999
15 0 3 0.0 -1.635 0.253 0.89700000000000002
16 0 4 0.0 -1.9079999999999999 -0.83999999999999997 0.72799999999999998
17 0 4 0.0 -2.0289999999999999 0.88100000000000001 0.031
18 0 4 0.0 -2.1059999999999999 0.61499999999999999 1.8700000000000001

Bonds

1 1 15 16
2 1 15 17
3 1 15 18
4 3 12 13
5 3 10 11
6 1 6 7
7 1 6 8
8 1 6 9
9 3 3 4
10 3 1 2
11 2 14 15
12 4 12 14
13 4 10 12
14 2 5 6
15 4 5 10
16 4 3 5
17 4 1 3
18 4 1 14

Angles

1 1 17 15 18
2 1 16 15 17
3 1 16 15 18
4 2 14 15 16
5 2 14 15 17
6 2 14 15 18
7 3 13 12 14
8 3 11 10 12
9 3 10 12 13
10 1 8 6 9
11 1 7 6 8
12 1 7 6 9
13 2 5 6 7
14 2 5 6 8
15 2 5 6 9
16 3 5 10 11
17 3 4 3 5
18 3 2 1 3
19 3 2 1 14
20 3 1 3 4
21 4 12 14 15
22 5 10 12 14
23 4 6 5 10
24 5 5 10 12
25 5 3 1 14
26 4 3 5 6
27 5 3 5 10
28 5 1 3 5
29 5 1 14 12
30 4 1 14 15

Dihedrals

1 1 13 12 14 15
2 2 12 14 15 16
3 2 12 14 15 17
4 2 12 14 15 18
5 1 11 10 12 13
6 1 11 10 12 14
7 2 9 6 5 10
8 2 8 6 5 10
9 2 7 6 5 10
10 1 6 5 10 11
11 1 5 10 12 13
12 1 14 1 3 4
13 1 4 3 5 6
14 1 4 3 5 10
15 2 3 5 6 7
16 2 3 5 6 8
17 2 3 5 6 9
18 1 3 5 10 11
19 1 2 1 3 4
20 1 2 1 3 5
21 1 2 1 14 12
22 1 2 1 14 15
23 1 1 14 12 13
24 2 1 14 15 16
25 2 1 14 15 17
26 2 1 14 15 18
27 3 10 14 12 13
28 3 5 12 10 11
29 3 1 5 3 4
30 3 2 1 14 3
31 1 10 12 14 15
32 1 6 5 10 12
33 1 14 1 3 5
34 1 5 10 12 14
35 1 3 1 14 12
36 1 3 1 14 15
37 1 3 5 10 12
38 1 1 3 5 6
39 1 1 3 5 10
40 1 1 14 12 10
41 3 1 12 14 15
42 3 6 3 5 10

