LAMMPS data file for default_name

17 atoms
16 bonds
28 angles
37 dihedrals
0 impropers

6 atom types
7 bond types
12 angle types
13 dihedral types

-3.8769999999999998 0.59499999999999997 xlo xhi
-2.0209999999999999 2.996 ylo yhi
-1.508 2.4529999999999998 zlo zhi

Masses

1 12.01
2 1.008
3 1.008
4 16.0
5 12.01
6 16.0

Pair Coeffs

1 0.10939999991572773 3.3996695084507409
2 0.01570000002623629 2.6495327872602221
3 0.015700000098461422 2.4713530426421655
4 0.17000000010548533 3.0000123432245225
5 0.086000000128358844 3.3996695079448309
6 0.20999999984182244 2.9599219016446874

Bond Coeffs

1 337.30000000000001 1.0920000000000001
2 303.10000000000002 1.5349999999999999
3 648.0 1.214
4 328.30000000000001 1.508
5 411.30000000000001 1.343
6 335.89999999999998 1.093
7 301.5 1.4390000000000001

Angle Coeffs

1 39.43 108.3500467226538
2 46.369999999999997 110.05004745123244
3 68.030000000000001 123.1100525900646
4 47.200000000000003 109.68004677699743
5 63.789999999999999 110.53004742776565
6 75.930000000000007 123.33005291353435
7 69.260000000000005 111.96004809792466
8 50.840000000000003 108.82004686678859
9 39.18 109.55004723694461
10 63.630000000000003 115.1400492316122
11 46.359999999999999 110.07004711602929
12 67.780000000000001 108.42004669535831

Dihedral Coeffs

1 0.14999999999999999 1 3
2 0.80000000000000004 1 1
3 0.080000000000000002 -1 3
4 0.0 -1 2
5 0.15555555600000001 1 3
6 0.383333333 1 3
7 1.3999999999999999 -1 1
8 2.7000000000000002 -1 2
9 0.25 1 1
10 0.0 1 3
11 0.80000000000000004 -1 1
12 0.38300000000000001 1 3
13 10.5 -1 2

Atoms

1 0 1 0.0 -0.070000000000000007 1.016 1.5649999999999999
2 0 2 0.0 0.59499999999999997 1.2769999999999999 2.4529999999999998
3 0 2 0.0 0.49299999999999999 0.32100000000000001 0.85699999999999998
4 0 2 0.0 -1.0129999999999999 0.49399999999999999 1.9350000000000001
5 0 1 0.0 -0.45900000000000002 2.3039999999999998 0.81599999999999995
6 0 3 0.0 0.47999999999999998 2.827 0.437
7 0 3 0.0 -1.024 2.996 1.5229999999999999
8 0 4 0.0 -1.3460000000000001 1.946 -0.35199999999999998
9 0 5 0.0 -2.5569999999999999 1.212 0.17100000000000001
10 0 6 0.0 -3.8769999999999998 1.9339999999999999 0.29699999999999999
11 0 1 0.0 -2.48 -0.30299999999999999 0.435
12 0 2 0.0 -3.4649999999999999 -0.79500000000000004 0.14000000000000001
13 0 2 0.0 -2.2749999999999999 -0.48499999999999999 1.5409999999999999
14 0 1 0.0 -1.333 -0.89900000000000002 -0.40200000000000002
15 0 2 0.0 -1.534 -0.71199999999999997 -1.508
16 0 2 0.0 -1.264 -2.0209999999999999 -0.21199999999999999
17 0 2 0.0 -0.34999999999999998 -0.40100000000000002 -0.107

Bonds

1 1 14 15
2 1 14 16
3 1 14 17
4 1 11 12
5 1 11 13
6 6 5 6
7 6 5 7
8 1 1 2
9 1 1 3
10 1 1 4
11 2 11 14
12 3 9 10
13 4 9 11
14 5 8 9
15 7 5 8
16 2 1 5

Angles

1 1 16 14 17
2 1 15 14 16
3 1 15 14 17
4 2 13 11 14
5 1 12 11 13
6 2 12 11 14
7 2 11 14 15
8 2 11 14 16
9 2 11 14 17
10 4 9 11 12
11 4 9 11 13
12 8 7 5 8
13 9 6 5 7
14 8 6 5 8
15 2 4 1 5
16 1 3 1 4
17 2 3 1 5
18 1 2 1 3
19 1 2 1 4
20 2 2 1 5
21 11 1 5 6
22 11 1 5 7
23 3 10 9 11
24 5 9 11 14
25 6 8 9 10
26 7 8 9 11
27 10 5 8 9
28 12 1 5 8

Dihedrals

1 1 13 11 14 15
2 1 13 11 14 16
3 1 13 11 14 17
4 1 12 11 14 15
5 1 12 11 14 16
6 1 12 11 14 17
7 2 10 9 11 12
8 3 10 9 11 12
9 2 10 9 11 13
10 3 10 9 11 13
11 5 9 11 14 15
12 5 9 11 14 16
13 5 9 11 14 17
14 4 8 9 11 12
15 4 8 9 11 13
16 6 7 5 8 9
17 6 6 5 8 9
18 5 4 1 5 6
19 5 4 1 5 7
20 9 4 1 5 8
21 10 4 1 5 8
22 5 3 1 5 6
23 5 3 1 5 7
24 9 3 1 5 8
25 10 3 1 5 8
26 5 2 1 5 6
27 5 2 1 5 7
28 9 2 1 5 8
29 10 2 1 5 8
30 4 10 9 11 14
31 4 8 9 11 14
32 7 5 8 9 10
33 8 5 8 9 10
34 8 5 8 9 11
35 11 1 5 8 9
36 12 1 5 8 9
37 13 11 10 9 8

