LAMMPS data file for default_name

26 atoms
25 bonds
46 angles
71 dihedrals
0 impropers

5 atom types
6 bond types
10 angle types
13 dihedral types

-6.4610000000000003 -1.0780000000000001 xlo xhi
-0.94099999999999995 5.6760000000000002 ylo yhi
-1.7010000000000001 2.1259999999999999 zlo zhi

Masses

1 12.01
2 1.008
3 12.01
4 16.0
5 16.0

Pair Coeffs

1 0.10939999991572773 3.3996695084507409
2 0.01570000002623629 2.6495327872602221
3 0.086000000128358844 3.3996695079448309
4 0.20999999984182244 2.9599219016446874
5 0.17000000010548533 3.0000123432245225

Bond Coeffs

1 337.30000000000001 1.0920000000000001
2 303.10000000000002 1.5349999999999999
3 301.5 1.4390000000000001
4 648.0 1.214
5 411.30000000000001 1.343
6 328.30000000000001 1.508

Angle Coeffs

1 39.43 108.3500467226538
2 63.210000000000001 110.63004747062323
3 46.369999999999997 110.05004745123244
4 67.780000000000001 108.42004669535831
5 75.930000000000007 123.33005291353435
6 63.630000000000003 115.1400492316122
7 47.200000000000003 109.68004677699743
8 63.789999999999999 110.53004742776565
9 68.030000000000001 123.1100525900646
10 69.260000000000005 111.96004809792466

Dihedral Coeffs

1 0.16 1 3
2 0.25 1 1
3 0.0 1 3
4 1.3999999999999999 -1 1
5 2.7000000000000002 -1 2
6 0.80000000000000004 -1 1
7 0.38300000000000001 1 3
8 0.80000000000000004 1 1
9 0.080000000000000002 -1 3
10 0.0 -1 2
11 0.14999999999999999 1 3
12 0.15555555600000001 1 3
13 10.5 -1 2

Atoms

1 0 1 0.0 -5.875 0.16900000000000001 -0.13500000000000001
2 0 2 0.0 -5.7110000000000003 -0.94099999999999995 -0.33800000000000002
3 0 2 0.0 -6.4610000000000003 0.63100000000000001 -0.996
4 0 2 0.0 -6.46 0.29699999999999999 0.83499999999999996
5 0 1 0.0 -4.5119999999999996 0.875 -0.0070000000000000001
6 0 1 0.0 -3.7160000000000002 0.25800000000000001 1.157
7 0 2 0.0 -2.71 0.78600000000000003 1.2490000000000001
8 0 2 0.0 -3.548 -0.85199999999999998 0.95899999999999996
9 0 2 0.0 -4.3029999999999999 0.38700000000000001 2.1259999999999999
10 0 2 0.0 -3.9249999999999998 0.753 -0.97699999999999998
11 0 3 0.0 -4.7320000000000002 2.371 0.27500000000000002
12 0 4 0.0 -6.032 3.0270000000000001 -0.123
13 0 5 0.0 -3.71 3.1419999999999999 1.077
14 0 1 0.0 -2.8759999999999999 3.948 0.109
15 0 1 0.0 -2.286 2.9950000000000001 -0.94599999999999995
16 0 2 0.0 -1.677 3.5950000000000002 -1.7010000000000001
17 0 2 0.0 -3.137 2.46 -1.4830000000000001
18 0 2 0.0 -1.615 2.2269999999999999 -0.438
19 0 1 0.0 -3.7829999999999999 4.9649999999999999 -0.60599999999999998
20 0 2 0.0 -4.2359999999999998 5.6760000000000002 0.161
21 0 2 0.0 -4.617 4.407 -1.147
22 0 2 0.0 -3.1680000000000001 5.5570000000000004 -1.361
23 0 1 0.0 -1.7450000000000001 4.6859999999999999 0.85199999999999998
24 0 2 0.0 -1.1220000000000001 5.2770000000000001 0.10199999999999999
25 0 2 0.0 -1.0780000000000001 3.9279999999999999 1.383
26 0 2 0.0 -2.194 5.4000000000000004 1.619

Bonds

1 1 23 24
2 1 23 25
3 1 23 26
4 1 19 20
5 1 19 21
6 1 19 22
7 1 15 16
8 1 15 17
9 1 15 18
10 1 6 7
11 1 6 8
12 1 6 9
13 1 5 10
14 1 1 2
15 1 1 3
16 1 1 4
17 2 14 15
18 2 14 19
19 2 14 23
20 3 13 14
21 4 11 12
22 5 11 13
23 2 5 6
24 6 5 11
25 2 1 5

Angles

1 1 25 23 26
2 1 24 23 25
3 1 24 23 26
4 1 21 19 22
5 1 20 19 21
6 1 20 19 22
7 1 17 15 18
8 1 16 15 17
9 1 16 15 18
10 3 14 15 16
11 3 14 15 17
12 3 14 15 18
13 3 14 19 20
14 3 14 19 21
15 3 14 19 22
16 3 14 23 24
17 3 14 23 25
18 3 14 23 26
19 7 10 5 11
20 1 8 6 9
21 1 7 6 8
22 1 7 6 9
23 3 6 5 10
24 3 5 6 7
25 3 5 6 8
26 3 5 6 9
27 3 4 1 5
28 1 3 1 4
29 3 3 1 5
30 1 2 1 3
31 1 2 1 4
32 3 2 1 5
33 3 1 5 10
34 2 19 14 23
35 2 15 14 19
36 2 15 14 23
37 4 13 14 15
38 4 13 14 19
39 4 13 14 23
40 5 12 11 13
41 6 11 13 14
42 8 6 5 11
43 9 5 11 12
44 10 5 11 13
45 2 1 5 6
46 8 1 5 11

Dihedrals

1 1 22 19 14 23
2 1 21 19 14 23
3 1 20 19 14 23
4 1 19 14 23 24
5 1 19 14 23 25
6 1 19 14 23 26
7 1 18 15 14 19
8 1 18 15 14 23
9 1 17 15 14 19
10 1 17 15 14 23
11 1 16 15 14 19
12 1 16 15 14 23
13 1 15 14 19 20
14 1 15 14 19 21
15 1 15 14 19 22
16 1 15 14 23 24
17 1 15 14 23 25
18 1 15 14 23 26
19 2 13 14 15 16
20 3 13 14 15 16
21 2 13 14 15 17
22 3 13 14 15 17
23 2 13 14 15 18
24 3 13 14 15 18
25 2 13 14 19 20
26 3 13 14 19 20
27 2 13 14 19 21
28 3 13 14 19 21
29 2 13 14 19 22
30 3 13 14 19 22
31 2 13 14 23 24
32 3 13 14 23 24
33 2 13 14 23 25
34 3 13 14 23 25
35 2 13 14 23 26
36 3 13 14 23 26
37 8 10 5 11 12
38 9 10 5 11 12
39 10 10 5 11 13
40 11 9 6 5 10
41 12 9 6 5 11
42 11 8 6 5 10
43 12 8 6 5 11
44 11 7 6 5 10
45 12 7 6 5 11
46 1 4 1 5 6
47 11 4 1 5 10
48 12 4 1 5 11
49 1 3 1 5 6
50 11 3 1 5 10
51 12 3 1 5 11
52 1 2 1 5 6
53 11 2 1 5 10
54 12 2 1 5 11
55 1 1 5 6 7
56 1 1 5 6 8
57 1 1 5 6 9
58 4 12 11 13 14
59 5 12 11 13 14
60 6 11 13 14 15
61 7 11 13 14 15
62 6 11 13 14 19
63 7 11 13 14 19
64 6 11 13 14 23
65 7 11 13 14 23
66 10 6 5 11 12
67 10 6 5 11 13
68 5 5 11 13 14
69 10 1 5 11 12
70 10 1 5 11 13
71 13 5 12 11 13

