LAMMPS data file for default_name

8 atoms
7 bonds
12 angles
15 dihedrals
0 impropers

4 atom types
4 bond types
7 angle types
4 dihedral types

-4.5620000000000003 -1.794 xlo xhi
0.20100000000000001 2.7530000000000001 ylo yhi
-2.5230000000000001 0.78200000000000003 zlo zhi

Masses

1 19.0
2 12.01
3 1.008
4 1.008

Pair Coeffs

1 0.060999999861473579 3.1181455140920482
2 0.10939999991572773 3.3996695084507409
3 0.015700000098461422 2.4713530426421655
4 0.015700000021275418 2.2931733000782102

Bond Coeffs

1 326.39999999999998 1.1000000000000001
2 363.80000000000001 1.3440000000000001
3 335.89999999999998 1.093
4 303.10000000000002 1.5349999999999999

Angle Coeffs

1 71.260000000000005 107.1600460407614
2 51.359999999999999 108.4100462900021
3 46.359999999999999 110.07004711602929
4 39.18 109.55004723694461
5 46.020000000000003 111.59004799664743
6 66.219999999999999 109.41004671857777
7 51.57 107.85004650836595

Dihedral Coeffs

1 0.15555555600000001 1 3
2 0.19 1 1
3 0.0 1 3
4 1.2 -1 1

Atoms

1 0 1 0.0 -1.794 2.7530000000000001 -0.89000000000000001
2 0 2 0.0 -2.528 1.5940000000000001 -0.308
3 0 3 0.0 -1.8740000000000001 0.66200000000000003 -0.36699999999999999
4 0 3 0.0 -2.7799999999999998 1.8129999999999999 0.78200000000000003
5 0 2 0.0 -3.8279999999999998 1.3600000000000001 -1.099
6 0 4 0.0 -4.4809999999999999 2.2930000000000001 -1.0409999999999999
7 0 1 0.0 -4.5620000000000003 0.20100000000000001 -0.51600000000000001
8 0 1 0.0 -3.4990000000000001 1.0720000000000001 -2.5230000000000001

Bonds

1 1 5 6
2 3 2 3
3 3 2 4
4 2 5 7
5 2 5 8
6 4 2 5
7 2 1 2

Angles

1 2 6 5 7
2 2 6 5 8
3 3 4 2 5
4 4 3 2 4
5 3 3 2 5
6 5 2 5 6
7 7 1 2 3
8 7 1 2 4
9 1 7 5 8
10 6 2 5 7
11 6 2 5 8
12 6 1 2 5

Dihedrals

1 1 4 2 5 6
2 2 4 2 5 7
3 3 4 2 5 7
4 2 4 2 5 8
5 3 4 2 5 8
6 1 3 2 5 6
7 2 3 2 5 7
8 3 3 2 5 7
9 2 3 2 5 8
10 3 3 2 5 8
11 1 1 2 5 6
12 4 1 2 5 7
13 3 1 2 5 7
14 4 1 2 5 8
15 3 1 2 5 8

