LAMMPS data file for default_name

40 atoms
39 bonds
72 angles
119 dihedrals
0 impropers

8 atom types
11 bond types
21 angle types
20 dihedral types

-7.0650000000000004 9.0860000000000003 xlo xhi
-1.0249999999999999 2.4660000000000002 ylo yhi
-0.77300000000000002 3.6080000000000001 zlo zhi

Masses

1 14.01
2 1.008
3 12.01
4 1.008
5 1.008
6 12.01
7 16.0
8 1.008

Pair Coeffs

1 0.16999999991766696 3.2499985240310356
2 0.015700000004219245 1.0690784617205229
3 0.10939999991572773 3.3996695084507409
4 0.015700000098461422 2.4713530426421655
5 0.01570000002623629 2.6495327872602221
6 0.086000000128358844 3.3996695079448309
7 0.20999999984182244 2.9599219016446874
8 0.014999999991481437 2.5105525875831352

Bond Coeffs

1 310.5 1.1123000000000001
2 648.0 1.214
3 337.30000000000001 1.0920000000000001
4 328.30000000000001 1.508
5 303.10000000000002 1.5349999999999999
6 410.19999999999999 1.0089999999999999
7 478.19999999999999 1.345
8 335.89999999999998 1.093
9 330.60000000000002 1.46
10 394.10000000000002 1.018
11 320.60000000000002 1.47

Angle Coeffs

1 54.280000000000001 120.93005188495273
2 47.200000000000003 109.68004677699743
3 39.43 108.3500467226538
4 46.109999999999999 114.40004902905777
5 68.030000000000001 123.1100525900646
6 46.369999999999997 110.05004745123244
7 63.789999999999999 110.53004742776565
8 63.210000000000001 110.63004747062323
9 49.210000000000001 118.46005088366657
10 75.829999999999998 122.03005235638598
11 67.859999999999999 115.15004963696842
12 49.82 109.32004708107642
13 39.18 109.55004723694461
14 46.039999999999999 116.78004981988477
15 63.920000000000002 121.35005229413763
16 46.359999999999999 110.07004711602929
17 65.849999999999994 112.13004811348674
18 47.130000000000003 109.92004733822183
19 41.299999999999997 107.13004597060835
20 49.390000000000001 109.92004733822183
21 66.180000000000007 110.38004707700041

Dihedral Coeffs

1 0.0 -1 2
2 0.80000000000000004 1 1
3 0.080000000000000002 -1 3
4 0.14999999999999999 1 3
5 0.15555555600000001 1 3
6 0.16 1 3
7 0.20000000000000001 -1 1
8 0.25 -1 2
9 0.17999999999999999 1 3
10 2.0 1 1
11 2.5 -1 2
12 0.070000000000000007 1 2
13 0.10000000000000001 1 4
14 0.0 1 2
15 0.53000000000000003 1 1
16 0.14999999999999999 -1 3
17 0.5 -1 4
18 0.29999999999999999 1 3
19 10.5 -1 2
20 1.1000000000000001 -1 2

Atoms

1 0 1 0.0 -6.2140000000000004 0.48799999999999999 -0.42599999999999999
2 0 2 0.0 -7.0650000000000004 1.111 -0.77300000000000002
3 0 2 0.0 -6.5650000000000004 -0.20499999999999999 0.36799999999999999
4 0 3 0.0 -5.1289999999999996 1.3799999999999999 0.126
5 0 4 0.0 -4.7709999999999999 2.0950000000000002 -0.68700000000000006
6 0 4 0.0 -5.5410000000000004 1.982 1.0029999999999999
7 0 3 0.0 -3.9489999999999998 0.51500000000000001 0.60999999999999999
8 0 5 0.0 -3.5289999999999999 -0.082000000000000003 -0.26500000000000001
9 0 5 0.0 -4.3129999999999997 -0.20200000000000001 1.419
10 0 3 0.0 -2.8490000000000002 1.427 1.1859999999999999
11 0 5 0.0 -3.2759999999999998 2.02 2.0609999999999999
12 0 5 0.0 -2.4820000000000002 2.1480000000000001 0.38300000000000001
13 0 3 0.0 -1.671 0.56699999999999995 1.6830000000000001
14 0 5 0.0 -1.2230000000000001 -0.017000000000000001 0.81299999999999994
15 0 5 0.0 -2.0419999999999998 -0.16 2.4790000000000001
16 0 3 0.0 -0.60099999999999998 1.4830000000000001 2.3029999999999999
17 0 5 0.0 -1.0680000000000001 2.0630000000000002 3.1659999999999999
18 0 5 0.0 -0.214 2.2149999999999999 1.5189999999999999
19 0 3 0.0 0.56699999999999995 0.63900000000000001 2.8420000000000001
20 0 4 0.0 0.17399999999999999 -0.109 3.6080000000000001
21 0 4 0.0 1.3260000000000001 1.3280000000000001 3.3420000000000001
22 0 1 0.0 1.26 -0.099000000000000005 1.7230000000000001
23 0 2 0.0 0.81399999999999995 -1.0249999999999999 1.3029999999999999
24 0 6 0.0 2.613 0.376 1.2509999999999999
25 0 7 0.0 3.3620000000000001 -0.40300000000000002 0.19600000000000001
26 0 3 0.0 3.234 1.639 1.8799999999999999
27 0 5 0.0 2.5459999999999998 1.982 2.722
28 0 5 0.0 3.306 2.4660000000000002 1.1000000000000001
29 0 3 0.0 4.6310000000000002 1.3759999999999999 2.4750000000000001
30 0 5 0.0 4.9870000000000001 2.3260000000000001 2.9950000000000001
31 0 5 0.0 4.5750000000000002 0.53000000000000003 3.2370000000000001
32 0 3 0.0 5.6459999999999999 1.024 1.3700000000000001
33 0 5 0.0 5.335 0.066000000000000003 0.83799999999999997
34 0 5 0.0 5.6909999999999998 1.8799999999999999 0.61899999999999999
35 0 3 0.0 7.0330000000000004 0.84799999999999998 2.0190000000000001
36 0 5 0.0 7.3150000000000004 1.8009999999999999 2.5779999999999998
37 0 5 0.0 7.0030000000000001 -0.024 2.7519999999999998
38 0 6 0.0 8.0879999999999992 0.56899999999999995 0.93200000000000005
39 0 8 0.0 8.0749999999999993 1.1659999999999999 -0.040000000000000001
40 0 7 0.0 9.0860000000000003 -0.55000000000000004 1.1140000000000001

Bonds

1 1 38 39
2 3 35 36
3 3 35 37
4 3 32 33
5 3 32 34
6 3 29 30
7 3 29 31
8 3 26 27
9 3 26 28
10 6 22 23
11 8 19 20
12 8 19 21
13 3 16 17
14 3 16 18
15 3 13 14
16 3 13 15
17 3 10 11
18 3 10 12
19 3 7 8
20 3 7 9
21 8 4 5
22 8 4 6
23 10 1 2
24 10 1 3
25 2 38 40
26 4 35 38
27 5 32 35
28 5 29 32
29 5 26 29
30 2 24 25
31 4 24 26
32 7 22 24
33 9 19 22
34 5 16 19
35 5 13 16
36 5 10 13
37 5 7 10
38 5 4 7
39 11 1 4

Angles

1 1 39 38 40
2 2 37 35 38
3 3 36 35 37
4 2 36 35 38
5 4 35 38 39
6 6 34 32 35
7 3 33 32 34
8 6 33 32 35
9 6 32 35 36
10 6 32 35 37
11 6 31 29 32
12 3 30 29 31
13 6 30 29 32
14 6 29 32 33
15 6 29 32 34
16 6 28 26 29
17 3 27 26 28
18 6 27 26 29
19 6 26 29 30
20 6 26 29 31
21 2 24 26 27
22 2 24 26 28
23 9 23 22 24
24 12 21 19 22
25 13 20 19 21
26 12 20 19 22
27 14 19 22 23
28 6 18 16 19
29 3 17 16 18
30 6 17 16 19
31 16 16 19 20
32 16 16 19 21
33 6 15 13 16
34 3 14 13 15
35 6 14 13 16
36 6 13 16 17
37 6 13 16 18
38 6 12 10 13
39 3 11 10 12
40 6 11 10 13
41 6 10 13 14
42 6 10 13 15
43 6 9 7 10
44 3 8 7 9
45 6 8 7 10
46 6 7 10 11
47 6 7 10 12
48 16 6 4 7
49 13 5 4 6
50 16 5 4 7
51 6 4 7 8
52 6 4 7 9
53 18 3 1 4
54 19 2 1 3
55 18 2 1 4
56 20 1 4 5
57 20 1 4 6
58 5 35 38 40
59 7 32 35 38
60 8 29 32 35
61 8 26 29 32
62 5 25 24 26
63 7 24 26 29
64 10 22 24 25
65 11 22 24 26
66 15 19 22 24
67 17 16 19 22
68 8 13 16 19
69 8 10 13 16
70 8 7 10 13
71 8 4 7 10
72 21 1 4 7

Dihedrals

1 1 37 35 38 39
2 2 37 35 38 40
3 3 37 35 38 40
4 1 36 35 38 39
5 2 36 35 38 40
6 3 36 35 38 40
7 4 34 32 35 36
8 4 34 32 35 37
9 5 34 32 35 38
10 4 33 32 35 36
11 4 33 32 35 37
12 5 33 32 35 38
13 1 32 35 38 39
14 4 31 29 32 33
15 4 31 29 32 34
16 6 31 29 32 35
17 4 30 29 32 33
18 4 30 29 32 34
19 6 30 29 32 35
20 6 29 32 35 36
21 6 29 32 35 37
22 4 28 26 29 30
23 4 28 26 29 31
24 6 28 26 29 32
25 4 27 26 29 30
26 4 27 26 29 31
27 6 27 26 29 32
28 6 26 29 32 33
29 6 26 29 32 34
30 2 25 24 26 27
31 3 25 24 26 27
32 2 25 24 26 28
33 3 25 24 26 28
34 5 24 26 29 30
35 5 24 26 29 31
36 10 23 22 24 25
37 11 23 22 24 25
38 11 23 22 24 26
39 1 22 24 26 27
40 1 22 24 26 28
41 14 21 19 22 23
42 14 21 19 22 24
43 14 20 19 22 23
44 14 20 19 22 24
45 5 18 16 19 20
46 5 18 16 19 21
47 5 18 16 19 22
48 5 17 16 19 20
49 5 17 16 19 21
50 5 17 16 19 22
51 14 16 19 22 23
52 4 15 13 16 17
53 4 15 13 16 18
54 6 15 13 16 19
55 4 14 13 16 17
56 4 14 13 16 18
57 6 14 13 16 19
58 5 13 16 19 20
59 5 13 16 19 21
60 4 12 10 13 14
61 4 12 10 13 15
62 6 12 10 13 16
63 4 11 10 13 14
64 4 11 10 13 15
65 6 11 10 13 16
66 6 10 13 16 17
67 6 10 13 16 18
68 4 9 7 10 11
69 4 9 7 10 12
70 6 9 7 10 13
71 4 8 7 10 11
72 4 8 7 10 12
73 6 8 7 10 13
74 6 7 10 13 14
75 6 7 10 13 15
76 5 6 4 7 8
77 5 6 4 7 9
78 5 6 4 7 10
79 5 5 4 7 8
80 5 5 4 7 9
81 5 5 4 7 10
82 6 4 7 10 11
83 6 4 7 10 12
84 18 3 1 4 5
85 18 3 1 4 6
86 18 3 1 4 7
87 18 2 1 4 5
88 18 2 1 4 6
89 18 2 1 4 7
90 5 1 4 7 8
91 5 1 4 7 9
92 19 35 39 38 40
93 20 24 19 22 23
94 1 32 35 38 40
95 5 29 32 35 38
96 7 26 29 32 35
97 8 26 29 32 35
98 9 26 29 32 35
99 1 25 24 26 29
100 5 24 26 29 32
101 12 22 24 26 29
102 13 22 24 26 29
103 11 19 22 24 25
104 11 19 22 24 26
105 15 16 19 22 24
106 16 16 19 22 24
107 17 16 19 22 24
108 5 13 16 19 22
109 7 10 13 16 19
110 8 10 13 16 19
111 9 10 13 16 19
112 7 7 10 13 16
113 8 7 10 13 16
114 9 7 10 13 16
115 7 4 7 10 13
116 8 4 7 10 13
117 9 4 7 10 13
118 5 1 4 7 10
119 19 26 22 24 25

