LAMMPS data file for default_name

49 atoms
48 bonds
90 angles
152 dihedrals
0 impropers

8 atom types
11 bond types
21 angle types
20 dihedral types

-7.101 11.218 xlo xhi
-1.2330000000000001 2.875 ylo yhi
-0.93700000000000006 4.3739999999999997 zlo zhi

Masses

1 14.01
2 1.008
3 12.01
4 1.008
5 1.008
6 12.01
7 16.0
8 1.008

Pair Coeffs

1 0.16999999991766696 3.2499985240310356
2 0.015700000004219245 1.0690784617205229
3 0.10939999991572773 3.3996695084507409
4 0.015700000098461422 2.4713530426421655
5 0.01570000002623629 2.6495327872602221
6 0.086000000128358844 3.3996695079448309
7 0.20999999984182244 2.9599219016446874
8 0.014999999991481437 2.5105525875831352

Bond Coeffs

1 310.5 1.1123000000000001
2 648.0 1.214
3 337.30000000000001 1.0920000000000001
4 328.30000000000001 1.508
5 303.10000000000002 1.5349999999999999
6 410.19999999999999 1.0089999999999999
7 478.19999999999999 1.345
8 335.89999999999998 1.093
9 330.60000000000002 1.46
10 394.10000000000002 1.018
11 320.60000000000002 1.47

Angle Coeffs

1 54.280000000000001 120.93005188495273
2 47.200000000000003 109.68004677699743
3 39.43 108.3500467226538
4 46.109999999999999 114.40004902905777
5 68.030000000000001 123.1100525900646
6 46.369999999999997 110.05004745123244
7 63.789999999999999 110.53004742776565
8 63.210000000000001 110.63004747062323
9 49.210000000000001 118.46005088366657
10 75.829999999999998 122.03005235638598
11 67.859999999999999 115.15004963696842
12 49.82 109.32004708107642
13 39.18 109.55004723694461
14 46.039999999999999 116.78004981988477
15 63.920000000000002 121.35005229413763
16 46.359999999999999 110.07004711602929
17 65.849999999999994 112.13004811348674
18 47.130000000000003 109.92004733822183
19 41.299999999999997 107.13004597060835
20 49.390000000000001 109.92004733822183
21 66.180000000000007 110.38004707700041

Dihedral Coeffs

1 0.0 -1 2
2 0.80000000000000004 1 1
3 0.080000000000000002 -1 3
4 0.14999999999999999 1 3
5 0.15555555600000001 1 3
6 0.16 1 3
7 0.20000000000000001 -1 1
8 0.25 -1 2
9 0.17999999999999999 1 3
10 2.0 1 1
11 2.5 -1 2
12 0.070000000000000007 1 2
13 0.10000000000000001 1 4
14 0.0 1 2
15 0.53000000000000003 1 1
16 0.14999999999999999 -1 3
17 0.5 -1 4
18 0.29999999999999999 1 3
19 10.5 -1 2
20 1.1000000000000001 -1 2

Atoms

1 0 1 0.0 -6.2869999999999999 0.50600000000000001 -0.51500000000000001
2 0 2 0.0 -7.101 1.131 -0.93700000000000006
3 0 2 0.0 -6.6950000000000003 -0.14399999999999999 0.28799999999999998
4 0 3 0.0 -5.2130000000000001 1.3999999999999999 0.056000000000000001
5 0 4 0.0 -4.7939999999999996 2.0659999999999998 -0.76900000000000002
6 0 4 0.0 -5.657 2.0489999999999999 0.88100000000000001
7 0 3 0.0 -4.0810000000000004 0.53500000000000003 0.64000000000000001
8 0 5 0.0 -3.6339999999999999 -0.11600000000000001 -0.18099999999999999
9 0 5 0.0 -4.5 -0.13 1.4650000000000001
10 0 3 0.0 -2.9870000000000001 1.4490000000000001 1.224
11 0 5 0.0 -3.4350000000000001 2.1000000000000001 2.0459999999999998
12 0 5 0.0 -2.569 2.1150000000000002 0.39800000000000002
13 0 3 0.0 -1.851 0.58899999999999997 1.8109999999999999
14 0 5 0.0 -1.3999999999999999 -0.058999999999999997 0.98899999999999999
15 0 5 0.0 -2.2690000000000001 -0.075999999999999998 2.6360000000000001
16 0 3 0.0 -0.76300000000000001 1.5089999999999999 2.3969999999999998
17 0 5 0.0 -1.2190000000000001 2.1589999999999998 3.2149999999999999
18 0 5 0.0 -0.34100000000000003 2.1739999999999999 1.573
19 0 3 0.0 0.37 0.65500000000000003 2.9940000000000002
20 0 4 0.0 -0.050000000000000003 -0.014 3.8170000000000002
21 0 4 0.0 1.169 1.3400000000000001 3.431
22 0 1 0.0 0.98499999999999999 -0.20000000000000001 1.911
23 0 2 0.0 0.61699999999999999 -1.2330000000000001 1.7430000000000001
24 0 6 0.0 2.169 0.317 1.1279999999999999
25 0 7 0.0 2.8039999999999998 -0.54200000000000004 0.059999999999999998
26 0 3 0.0 2.6579999999999999 1.76 1.3500000000000001
27 0 5 0.0 1.7589999999999999 2.4180000000000001 1.5920000000000001
28 0 5 0.0 3.1739999999999999 2.1480000000000001 0.41099999999999998
29 0 3 0.0 3.637 1.7969999999999999 2.5379999999999998
30 0 5 0.0 3.956 2.875 2.7269999999999999
31 0 5 0.0 3.109 1.3919999999999999 3.464
32 0 3 0.0 4.8879999999999999 0.94599999999999995 2.2440000000000002
33 0 5 0.0 4.5789999999999997 -0.13400000000000001 2.0449999999999999
34 0 5 0.0 5.4349999999999996 1.363 1.335
35 0 3 0.0 5.8029999999999999 1.0 3.4820000000000002
36 0 5 0.0 6.0860000000000003 2.0840000000000001 3.6949999999999998
37 0 5 0.0 5.2300000000000004 0.58199999999999996 4.3739999999999997
38 0 3 0.0 7.0890000000000004 0.17499999999999999 3.2850000000000001
39 0 5 0.0 7.7009999999999996 0.222 4.2450000000000001
40 0 5 0.0 6.8220000000000001 -0.91100000000000003 3.0609999999999999
41 0 3 0.0 7.9379999999999997 0.754 2.1379999999999999
42 0 5 0.0 7.359 0.70299999999999996 1.157
43 0 5 0.0 8.1920000000000002 1.8400000000000001 2.375
44 0 3 0.0 9.2390000000000008 -0.065000000000000002 2.0339999999999998
45 0 5 0.0 9.7880000000000003 -0.017999999999999999 3.0329999999999999
46 0 5 0.0 8.9849999999999994 -1.1499999999999999 1.7949999999999999
47 0 6 0.0 10.147 0.50600000000000001 0.92800000000000005
48 0 8 0.0 9.9550000000000001 1.5509999999999999 0.51800000000000002
49 0 7 0.0 11.218 -0.35999999999999999 0.31

Bonds

1 1 47 48
2 3 44 45
3 3 44 46
4 3 41 42
5 3 41 43
6 3 38 39
7 3 38 40
8 3 35 36
9 3 35 37
10 3 32 33
11 3 32 34
12 3 29 30
13 3 29 31
14 3 26 27
15 3 26 28
16 6 22 23
17 8 19 20
18 8 19 21
19 3 16 17
20 3 16 18
21 3 13 14
22 3 13 15
23 3 10 11
24 3 10 12
25 3 7 8
26 3 7 9
27 8 4 5
28 8 4 6
29 10 1 2
30 10 1 3
31 2 47 49
32 4 44 47
33 5 41 44
34 5 38 41
35 5 35 38
36 5 32 35
37 5 29 32
38 5 26 29
39 2 24 25
40 4 24 26
41 7 22 24
42 9 19 22
43 5 16 19
44 5 13 16
45 5 10 13
46 5 7 10
47 5 4 7
48 11 1 4

Angles

1 1 48 47 49
2 2 46 44 47
3 3 45 44 46
4 2 45 44 47
5 4 44 47 48
6 6 43 41 44
7 3 42 41 43
8 6 42 41 44
9 6 41 44 45
10 6 41 44 46
11 6 40 38 41
12 3 39 38 40
13 6 39 38 41
14 6 38 41 42
15 6 38 41 43
16 6 37 35 38
17 3 36 35 37
18 6 36 35 38
19 6 35 38 39
20 6 35 38 40
21 6 34 32 35
22 3 33 32 34
23 6 33 32 35
24 6 32 35 36
25 6 32 35 37
26 6 31 29 32
27 3 30 29 31
28 6 30 29 32
29 6 29 32 33
30 6 29 32 34
31 6 28 26 29
32 3 27 26 28
33 6 27 26 29
34 6 26 29 30
35 6 26 29 31
36 2 24 26 27
37 2 24 26 28
38 9 23 22 24
39 12 21 19 22
40 13 20 19 21
41 12 20 19 22
42 14 19 22 23
43 6 18 16 19
44 3 17 16 18
45 6 17 16 19
46 16 16 19 20
47 16 16 19 21
48 6 15 13 16
49 3 14 13 15
50 6 14 13 16
51 6 13 16 17
52 6 13 16 18
53 6 12 10 13
54 3 11 10 12
55 6 11 10 13
56 6 10 13 14
57 6 10 13 15
58 6 9 7 10
59 3 8 7 9
60 6 8 7 10
61 6 7 10 11
62 6 7 10 12
63 16 6 4 7
64 13 5 4 6
65 16 5 4 7
66 6 4 7 8
67 6 4 7 9
68 18 3 1 4
69 19 2 1 3
70 18 2 1 4
71 20 1 4 5
72 20 1 4 6
73 5 44 47 49
74 7 41 44 47
75 8 38 41 44
76 8 35 38 41
77 8 32 35 38
78 8 29 32 35
79 8 26 29 32
80 5 25 24 26
81 7 24 26 29
82 10 22 24 25
83 11 22 24 26
84 15 19 22 24
85 17 16 19 22
86 8 13 16 19
87 8 10 13 16
88 8 7 10 13
89 8 4 7 10
90 21 1 4 7

Dihedrals

1 1 46 44 47 48
2 2 46 44 47 49
3 3 46 44 47 49
4 1 45 44 47 48
5 2 45 44 47 49
6 3 45 44 47 49
7 4 43 41 44 45
8 4 43 41 44 46
9 5 43 41 44 47
10 4 42 41 44 45
11 4 42 41 44 46
12 5 42 41 44 47
13 1 41 44 47 48
14 4 40 38 41 42
15 4 40 38 41 43
16 6 40 38 41 44
17 4 39 38 41 42
18 4 39 38 41 43
19 6 39 38 41 44
20 6 38 41 44 45
21 6 38 41 44 46
22 4 37 35 38 39
23 4 37 35 38 40
24 6 37 35 38 41
25 4 36 35 38 39
26 4 36 35 38 40
27 6 36 35 38 41
28 6 35 38 41 42
29 6 35 38 41 43
30 4 34 32 35 36
31 4 34 32 35 37
32 6 34 32 35 38
33 4 33 32 35 36
34 4 33 32 35 37
35 6 33 32 35 38
36 6 32 35 38 39
37 6 32 35 38 40
38 4 31 29 32 33
39 4 31 29 32 34
40 6 31 29 32 35
41 4 30 29 32 33
42 4 30 29 32 34
43 6 30 29 32 35
44 6 29 32 35 36
45 6 29 32 35 37
46 4 28 26 29 30
47 4 28 26 29 31
48 6 28 26 29 32
49 4 27 26 29 30
50 4 27 26 29 31
51 6 27 26 29 32
52 6 26 29 32 33
53 6 26 29 32 34
54 2 25 24 26 27
55 3 25 24 26 27
56 2 25 24 26 28
57 3 25 24 26 28
58 5 24 26 29 30
59 5 24 26 29 31
60 10 23 22 24 25
61 11 23 22 24 25
62 11 23 22 24 26
63 1 22 24 26 27
64 1 22 24 26 28
65 14 21 19 22 23
66 14 21 19 22 24
67 14 20 19 22 23
68 14 20 19 22 24
69 5 18 16 19 20
70 5 18 16 19 21
71 5 18 16 19 22
72 5 17 16 19 20
73 5 17 16 19 21
74 5 17 16 19 22
75 14 16 19 22 23
76 4 15 13 16 17
77 4 15 13 16 18
78 6 15 13 16 19
79 4 14 13 16 17
80 4 14 13 16 18
81 6 14 13 16 19
82 5 13 16 19 20
83 5 13 16 19 21
84 4 12 10 13 14
85 4 12 10 13 15
86 6 12 10 13 16
87 4 11 10 13 14
88 4 11 10 13 15
89 6 11 10 13 16
90 6 10 13 16 17
91 6 10 13 16 18
92 4 9 7 10 11
93 4 9 7 10 12
94 6 9 7 10 13
95 4 8 7 10 11
96 4 8 7 10 12
97 6 8 7 10 13
98 6 7 10 13 14
99 6 7 10 13 15
100 5 6 4 7 8
101 5 6 4 7 9
102 5 6 4 7 10
103 5 5 4 7 8
104 5 5 4 7 9
105 5 5 4 7 10
106 6 4 7 10 11
107 6 4 7 10 12
108 18 3 1 4 5
109 18 3 1 4 6
110 18 3 1 4 7
111 18 2 1 4 5
112 18 2 1 4 6
113 18 2 1 4 7
114 5 1 4 7 8
115 5 1 4 7 9
116 19 44 48 47 49
117 20 24 19 22 23
118 1 41 44 47 49
119 5 38 41 44 47
120 7 35 38 41 44
121 8 35 38 41 44
122 9 35 38 41 44
123 7 32 35 38 41
124 8 32 35 38 41
125 9 32 35 38 41
126 7 29 32 35 38
127 8 29 32 35 38
128 9 29 32 35 38
129 7 26 29 32 35
130 8 26 29 32 35
131 9 26 29 32 35
132 1 25 24 26 29
133 5 24 26 29 32
134 12 22 24 26 29
135 13 22 24 26 29
136 11 19 22 24 25
137 11 19 22 24 26
138 15 16 19 22 24
139 16 16 19 22 24
140 17 16 19 22 24
141 5 13 16 19 22
142 7 10 13 16 19
143 8 10 13 16 19
144 9 10 13 16 19
145 7 7 10 13 16
146 8 7 10 13 16
147 9 7 10 13 16
148 7 4 7 10 13
149 8 4 7 10 13
150 9 4 7 10 13
151 5 1 4 7 10
152 19 26 22 24 25

