LAMMPS data file for default_name

20 atoms
19 bonds
34 angles
45 dihedrals
0 impropers

6 atom types
7 bond types
13 angle types
14 dihedral types

-6.5730000000000004 -1.071 xlo xhi
-1.135 5.7720000000000002 ylo yhi
-1.4099999999999999 2.0880000000000001 zlo zhi

Masses

1 12.01
2 1.008
3 12.01
4 16.0
5 16.0
6 1.008

Pair Coeffs

1 0.10939999991572773 3.3996695084507409
2 0.01570000002623629 2.6495327872602221
3 0.086000000128358844 3.3996695079448309
4 0.20999999984182244 2.9599219016446874
5 0.17000000010548533 3.0000123432245225
6 0.015700000098461422 2.4713530426421655

Bond Coeffs

1 337.30000000000001 1.0920000000000001
2 335.89999999999998 1.093
3 303.10000000000002 1.5349999999999999
4 301.5 1.4390000000000001
5 648.0 1.214
6 411.30000000000001 1.343
7 328.30000000000001 1.508

Angle Coeffs

1 39.43 108.3500467226538
2 46.359999999999999 110.07004711602929
3 39.18 109.55004723694461
4 46.369999999999997 110.05004745123244
5 50.840000000000003 108.82004686678859
6 67.780000000000001 108.42004669535831
7 75.930000000000007 123.33005291353435
8 63.630000000000003 115.1400492316122
9 47.200000000000003 109.68004677699743
10 63.789999999999999 110.53004742776565
11 68.030000000000001 123.1100525900646
12 69.260000000000005 111.96004809792466
13 63.210000000000001 110.63004747062323

Dihedral Coeffs

1 0.15555555600000001 1 3
2 0.25 1 1
3 0.0 1 3
4 1.3999999999999999 -1 1
5 2.7000000000000002 -1 2
6 0.383333333 1 3
7 0.80000000000000004 -1 1
8 0.38300000000000001 1 3
9 0.80000000000000004 1 1
10 0.080000000000000002 -1 3
11 0.0 -1 2
12 0.14999999999999999 1 3
13 0.16 1 3
14 10.5 -1 2

Atoms

1 0 1 0.0 -6.0090000000000003 0.029000000000000001 -0.121
2 0 2 0.0 -5.9580000000000002 -1.101 -0.255
3 0 2 0.0 -6.5730000000000004 0.49199999999999999 -0.997
4 0 2 0.0 -6.5519999999999996 0.27400000000000002 0.85199999999999998
5 0 1 0.0 -4.5819999999999999 0.60499999999999998 -0.070999999999999994
6 0 1 0.0 -3.8149999999999999 -0.0040000000000000001 1.1180000000000001
7 0 2 0.0 -2.7629999999999999 0.435 1.1539999999999999
8 0 2 0.0 -3.7519999999999998 -1.135 0.99099999999999999
9 0 2 0.0 -4.3620000000000001 0.24099999999999999 2.0880000000000001
10 0 2 0.0 -4.0380000000000003 0.35899999999999999 -1.042
11 0 3 0.0 -4.6529999999999996 2.133 0.10100000000000001
12 0 4 0.0 -5.9569999999999999 2.8599999999999999 -0.13100000000000001
13 0 5 0.0 -3.431 2.895 0.55300000000000005
14 0 1 0.0 -3.2509999999999999 4.1130000000000004 -0.32000000000000001
15 0 6 0.0 -4.149 4.8049999999999997 -0.19800000000000001
16 0 6 0.0 -3.1659999999999999 3.79 -1.4099999999999999
17 0 1 0.0 -1.9650000000000001 4.8529999999999998 0.094
18 0 2 0.0 -1.825 5.7720000000000002 -0.56599999999999995
19 0 2 0.0 -1.071 4.157 -0.029000000000000001
20 0 2 0.0 -2.0470000000000002 5.1760000000000002 1.1839999999999999

Bonds

1 1 17 18
2 1 17 19
3 1 17 20
4 2 14 15
5 2 14 16
6 1 6 7
7 1 6 8
8 1 6 9
9 1 5 10
10 1 1 2
11 1 1 3
12 1 1 4
13 3 14 17
14 4 13 14
15 5 11 12
16 6 11 13
17 3 5 6
18 7 5 11
19 3 1 5

Angles

1 1 19 17 20
2 1 18 17 19
3 1 18 17 20
4 2 16 14 17
5 3 15 14 16
6 2 15 14 17
7 4 14 17 18
8 4 14 17 19
9 4 14 17 20
10 5 13 14 15
11 5 13 14 16
12 9 10 5 11
13 1 8 6 9
14 1 7 6 8
15 1 7 6 9
16 4 6 5 10
17 4 5 6 7
18 4 5 6 8
19 4 5 6 9
20 4 4 1 5
21 1 3 1 4
22 4 3 1 5
23 1 2 1 3
24 1 2 1 4
25 4 2 1 5
26 4 1 5 10
27 6 13 14 17
28 7 12 11 13
29 8 11 13 14
30 10 6 5 11
31 11 5 11 12
32 12 5 11 13
33 13 1 5 6
34 10 1 5 11

Dihedrals

1 1 16 14 17 18
2 1 16 14 17 19
3 1 16 14 17 20
4 1 15 14 17 18
5 1 15 14 17 19
6 1 15 14 17 20
7 2 13 14 17 18
8 3 13 14 17 18
9 2 13 14 17 19
10 3 13 14 17 19
11 2 13 14 17 20
12 3 13 14 17 20
13 6 11 13 14 15
14 6 11 13 14 16
15 9 10 5 11 12
16 10 10 5 11 12
17 11 10 5 11 13
18 12 9 6 5 10
19 1 9 6 5 11
20 12 8 6 5 10
21 1 8 6 5 11
22 12 7 6 5 10
23 1 7 6 5 11
24 13 4 1 5 6
25 12 4 1 5 10
26 1 4 1 5 11
27 13 3 1 5 6
28 12 3 1 5 10
29 1 3 1 5 11
30 13 2 1 5 6
31 12 2 1 5 10
32 1 2 1 5 11
33 13 1 5 6 7
34 13 1 5 6 8
35 13 1 5 6 9
36 4 12 11 13 14
37 5 12 11 13 14
38 7 11 13 14 17
39 8 11 13 14 17
40 11 6 5 11 12
41 11 6 5 11 13
42 5 5 11 13 14
43 11 1 5 11 12
44 11 1 5 11 13
45 14 5 12 11 13

