LAMMPS data file for default_name

23 atoms
22 bonds
38 angles
49 dihedrals
0 impropers

6 atom types
7 bond types
11 angle types
10 dihedral types

-3.1600000000000001 1.4419999999999999 xlo xhi
-3.5099999999999998 4.2320000000000002 ylo yhi
-1.4419999999999999 2.1640000000000001 zlo zhi

Masses

1 12.01
2 1.008
3 16.0
4 12.01
5 16.0
6 1.008

Pair Coeffs

1 0.10939999991572773 3.3996695084507409
2 0.015700000098461422 2.4713530426421655
3 0.17000000010548533 3.0000123432245225
4 0.086000000128358844 3.3996695079448309
5 0.20999999984182244 2.9599219016446874
6 0.01570000002623629 2.6495327872602221

Bond Coeffs

1 335.89999999999998 1.093
2 301.5 1.4390000000000001
3 648.0 1.214
4 411.30000000000001 1.343
5 337.30000000000001 1.0920000000000001
6 303.10000000000002 1.5349999999999999
7 328.30000000000001 1.508

Angle Coeffs

1 39.18 109.55004723694461
2 50.840000000000003 108.82004686678859
3 75.930000000000007 123.33005291353435
4 63.630000000000003 115.1400492316122
5 47.200000000000003 109.68004677699743
6 39.43 108.3500467226538
7 46.369999999999997 110.05004745123244
8 63.789999999999999 110.53004742776565
9 68.030000000000001 123.1100525900646
10 69.260000000000005 111.96004809792466
11 63.210000000000001 110.63004747062323

Dihedral Coeffs

1 1.3999999999999999 -1 1
2 2.7000000000000002 -1 2
3 0.383333333 1 3
4 0.80000000000000004 1 1
5 0.080000000000000002 -1 3
6 0.0 -1 2
7 0.14999999999999999 1 3
8 0.15555555600000001 1 3
9 0.16 1 3
10 10.5 -1 2

Atoms

1 0 1 0.0 0.314 -2.8039999999999998 0.17000000000000001
2 0 2 0.0 0.93700000000000006 -3.5099999999999998 -0.47199999999999998
3 0 2 0.0 -0.071999999999999995 -3.363 1.0860000000000001
4 0 2 0.0 0.95699999999999996 -1.925 0.50700000000000001
5 0 3 0.0 -0.85799999999999998 -2.286 -0.629
6 0 4 0.0 -1.6519999999999999 -1.349 0.249
7 0 5 0.0 -3.1600000000000001 -1.335 0.16500000000000001
8 0 1 0.0 -0.93200000000000005 -0.54400000000000004 1.345
9 0 6 0.0 -1.667 -0.246 2.1640000000000001
10 0 6 0.0 -0.113 -1.2010000000000001 1.79
11 0 1 0.0 -0.27900000000000003 0.71399999999999997 0.74099999999999999
12 0 1 0.0 0.65600000000000003 0.26700000000000002 -0.39900000000000002
13 0 6 0.0 0.042000000000000003 -0.26700000000000002 -1.1970000000000001
14 0 6 0.0 1.4419999999999999 -0.44900000000000001 0.012999999999999999
15 0 6 0.0 1.1679999999999999 1.1759999999999999 -0.85699999999999998
16 0 6 0.0 0.32500000000000001 1.248 1.546
17 0 4 0.0 -1.3480000000000001 1.6850000000000001 0.20000000000000001
18 0 5 0.0 -2.7839999999999998 1.24 0.069000000000000006
19 0 3 0.0 -0.96899999999999997 3.109 -0.13400000000000001
20 0 1 0.0 0.48699999999999999 3.1600000000000001 -0.53100000000000003
21 0 2 0.0 0.78100000000000003 4.2320000000000002 -0.78200000000000003
22 0 2 0.0 0.65300000000000002 2.496 -1.4419999999999999
23 0 2 0.0 1.127 2.7789999999999999 0.33200000000000002

Bonds

1 1 20 21
2 1 20 22
3 1 20 23
4 5 12 13
5 5 12 14
6 5 12 15
7 5 11 16
8 5 8 9
9 5 8 10
10 1 1 2
11 1 1 3
12 1 1 4
13 2 19 20
14 3 17 18
15 4 17 19
16 6 11 12
17 7 11 17
18 6 8 11
19 3 6 7
20 7 6 8
21 4 5 6
22 2 1 5

Angles

1 1 22 20 23
2 1 21 20 22
3 1 21 20 23
4 2 19 20 21
5 2 19 20 22
6 2 19 20 23
7 5 16 11 17
8 6 14 12 15
9 6 13 12 14
10 6 13 12 15
11 7 12 11 16
12 7 11 12 13
13 7 11 12 14
14 7 11 12 15
15 7 10 8 11
16 6 9 8 10
17 7 9 8 11
18 7 8 11 16
19 5 6 8 9
20 5 6 8 10
21 2 4 1 5
22 1 3 1 4
23 2 3 1 5
24 1 2 1 3
25 1 2 1 4
26 2 2 1 5
27 3 18 17 19
28 4 17 19 20
29 8 12 11 17
30 9 11 17 18
31 10 11 17 19
32 11 8 11 12
33 8 8 11 17
34 9 7 6 8
35 8 6 8 11
36 3 5 6 7
37 10 5 6 8
38 4 1 5 6

Dihedrals

1 3 17 19 20 21
2 3 17 19 20 22
3 3 17 19 20 23
4 4 16 11 17 18
5 5 16 11 17 18
6 6 16 11 17 19
7 7 15 12 11 16
8 8 15 12 11 17
9 7 14 12 11 16
10 8 14 12 11 17
11 7 13 12 11 16
12 8 13 12 11 17
13 9 10 8 11 12
14 7 10 8 11 16
15 8 10 8 11 17
16 9 9 8 11 12
17 7 9 8 11 16
18 8 9 8 11 17
19 9 8 11 12 13
20 9 8 11 12 14
21 9 8 11 12 15
22 4 7 6 8 9
23 6 7 6 8 9
24 5 7 6 8 9
25 4 7 6 8 10
26 6 7 6 8 10
27 5 7 6 8 10
28 8 6 8 11 16
29 6 5 6 8 9
30 6 5 6 8 10
31 3 4 1 5 6
32 3 3 1 5 6
33 3 2 1 5 6
34 1 18 17 19 20
35 2 18 17 19 20
36 6 12 11 17 18
37 6 12 11 17 19
38 2 11 17 19 20
39 6 8 11 17 18
40 6 8 11 17 19
41 6 7 6 8 11
42 8 6 8 11 12
43 8 6 8 11 17
44 6 5 6 8 11
45 1 1 5 6 7
46 2 1 5 6 7
47 2 1 5 6 8
48 10 11 18 17 19
49 10 8 7 6 5

