LAMMPS data file for default_name

15 atoms
14 bonds
24 angles
35 dihedrals
0 impropers

6 atom types
6 bond types
10 angle types
12 dihedral types

-3.008 1.591 xlo xhi
-1.5309999999999999 3.3879999999999999 ylo yhi
-1.177 2.1019999999999999 zlo zhi

Masses

1 12.01
2 1.008
3 12.01
4 14.01
5 1.008
6 16.0

Pair Coeffs

1 0.10939999991572773 3.3996695084507409
2 0.01570000002623629 2.6495327872602221
3 0.086000000128358844 3.3996695079448309
4 0.16999999991766696 3.2499985240310356
5 0.015700000004219245 1.0690784617205229
6 0.20999999984182244 2.9599219016446874

Bond Coeffs

1 410.19999999999999 1.0089999999999999
2 478.19999999999999 1.345
3 648.0 1.214
4 337.30000000000001 1.0920000000000001
5 303.10000000000002 1.5349999999999999
6 328.30000000000001 1.508

Angle Coeffs

1 39.729999999999997 117.85005022116495
2 75.829999999999998 122.03005235638598
3 49.210000000000001 118.46005088366657
4 47.200000000000003 109.68004677699743
5 39.43 108.3500467226538
6 46.369999999999997 110.05004745123244
7 63.789999999999999 110.53004742776565
8 67.859999999999999 115.15004963696842
9 68.030000000000001 123.1100525900646
10 63.210000000000001 110.63004747062323

Dihedral Coeffs

1 2.0 1 1
2 2.5 -1 2
3 0.0 -1 2
4 0.80000000000000004 1 1
5 0.080000000000000002 -1 3
6 0.14999999999999999 1 3
7 0.15555555600000001 1 3
8 0.070000000000000007 1 2
9 0.10000000000000001 1 4
10 0.16 1 3
11 1.1000000000000001 -1 2
12 10.5 -1 2

Atoms

1 0 1 0.0 -2.4670000000000001 1.802 -0.23100000000000001
2 0 2 0.0 -3.008 1.371 0.67600000000000005
3 0 2 0.0 -2.8370000000000002 1.284 -1.177
4 0 2 0.0 -2.6760000000000002 2.9209999999999998 -0.30199999999999999
5 0 1 0.0 -0.95299999999999996 1.5740000000000001 -0.083000000000000004
6 0 1 0.0 -0.44500000000000001 2.27 1.1919999999999999
7 0 2 0.0 -0.98099999999999998 1.841 2.1019999999999999
8 0 2 0.0 -0.65300000000000002 3.3879999999999999 1.119
9 0 2 0.0 0.67700000000000005 2.0950000000000002 1.292
10 0 2 0.0 -0.41299999999999998 2.0030000000000001 -0.99099999999999999
11 0 3 0.0 -0.67500000000000004 0.064000000000000001 0.014999999999999999
12 0 4 0.0 0.747 -0.44 0.065000000000000002
13 0 5 0.0 0.94699999999999995 -1.5309999999999999 0.128
14 0 5 0.0 1.591 0.27800000000000002 0.035999999999999997
15 0 6 0.0 -1.825 -0.91300000000000003 0.033000000000000002

Bonds

1 1 12 13
2 1 12 14
3 4 6 7
4 4 6 8
5 4 6 9
6 4 5 10
7 4 1 2
8 4 1 3
9 4 1 4
10 2 11 12
11 3 11 15
12 5 5 6
13 6 5 11
14 5 1 5

Angles

1 1 13 12 14
2 3 11 12 13
3 3 11 12 14
4 4 10 5 11
5 5 8 6 9
6 5 7 6 8
7 5 7 6 9
8 6 6 5 10
9 6 5 6 7
10 6 5 6 8
11 6 5 6 9
12 6 4 1 5
13 5 3 1 4
14 6 3 1 5
15 5 2 1 3
16 5 2 1 4
17 6 2 1 5
18 6 1 5 10
19 2 12 11 15
20 7 6 5 11
21 8 5 11 12
22 9 5 11 15
23 10 1 5 6
24 7 1 5 11

Dihedrals

1 1 14 12 11 15
2 2 14 12 11 15
3 1 13 12 11 15
4 2 13 12 11 15
5 3 10 5 11 12
6 4 10 5 11 15
7 5 10 5 11 15
8 6 9 6 5 10
9 7 9 6 5 11
10 6 8 6 5 10
11 7 8 6 5 11
12 6 7 6 5 10
13 7 7 6 5 11
14 2 5 11 12 13
15 2 5 11 12 14
16 10 4 1 5 6
17 6 4 1 5 10
18 7 4 1 5 11
19 10 3 1 5 6
20 6 3 1 5 10
21 7 3 1 5 11
22 10 2 1 5 6
23 6 2 1 5 10
24 7 2 1 5 11
25 10 1 5 6 7
26 10 1 5 6 8
27 10 1 5 6 9
28 11 11 13 12 14
29 8 6 5 11 12
30 9 6 5 11 12
31 3 6 5 11 15
32 8 1 5 11 12
33 9 1 5 11 12
34 3 1 5 11 15
35 12 5 12 11 15

