LAMMPS data file for default_name

8 atoms
7 bonds
10 angles
12 dihedrals
0 impropers

7 atom types
6 bond types
8 angle types
5 dihedral types

-3.7530000000000001 -0.35699999999999998 xlo xhi
-1.2350000000000001 2.0219999999999998 ylo yhi
-1.0189999999999999 1.4039999999999999 zlo zhi

Masses

1 16.0
2 12.01
3 1.008
4 12.01
5 1.008
6 16.0
7 1.008

Pair Coeffs

1 0.20999999984182244 2.9599219016446874
2 0.086000000128358844 3.3996695079448309
3 0.014999999991481437 2.5105525875831352
4 0.10939999991572773 3.3996695084507409
5 0.015700000098461422 2.4713530426421655
6 0.2104000002486992 3.0664733874581418
7 0.0 0.0

Bond Coeffs

1 369.60000000000002 0.97399999999999998
2 335.89999999999998 1.093
3 314.10000000000002 1.4259999999999999
4 310.5 1.1123000000000001
5 328.30000000000001 1.508
6 648.0 1.214

Angle Coeffs

1 50.969999999999999 109.88004686271258
2 39.18 109.55004723694461
3 47.090000000000003 108.16004646933708
4 46.109999999999999 114.40004902905777
5 47.630000000000003 107.66004625504924
6 68.650000000000006 108.70004658617638
7 54.280000000000001 120.93005188495273
8 68.030000000000001 123.1100525900646

Dihedral Coeffs

1 0.16666666699999999 1 3
2 0.0 -1 2
3 0.80000000000000004 1 1
4 0.080000000000000002 -1 3
5 10.5 -1 2

Atoms

1 0 1 0.0 -0.95599999999999996 2.0219999999999998 0.113
2 0 2 0.0 -1.0529999999999999 0.58999999999999997 0.58399999999999996
3 0 3 0.0 -0.35699999999999998 0.21299999999999999 1.4039999999999999
4 0 4 0.0 -2.1509999999999998 -0.33100000000000002 0.021999999999999999
5 0 5 0.0 -2.2799999999999998 -1.2350000000000001 0.70799999999999996
6 0 5 0.0 -1.8500000000000001 -0.68600000000000005 -1.0189999999999999
7 0 6 0.0 -3.4540000000000002 0.42699999999999999 -0.059999999999999998
8 0 7 0.0 -3.7530000000000001 0.75700000000000001 0.95499999999999996

Bonds

1 1 7 8
2 2 4 5
3 2 4 6
4 4 2 3
5 3 4 7
6 5 2 4
7 6 1 2

Angles

1 1 6 4 7
2 2 5 4 6
3 1 5 4 7
4 3 4 7 8
5 4 3 2 4
6 5 2 4 5
7 5 2 4 6
8 7 1 2 3
9 6 2 4 7
10 8 1 2 4

Dihedrals

1 1 6 4 7 8
2 1 5 4 7 8
3 2 3 2 4 5
4 2 3 2 4 6
5 2 3 2 4 7
6 1 2 4 7 8
7 3 1 2 4 5
8 4 1 2 4 5
9 3 1 2 4 6
10 4 1 2 4 6
11 5 1 2 3 4
12 2 1 2 4 7

