LAMMPS data file for default_name

10 atoms
9 bonds
13 angles
18 dihedrals
0 impropers

8 atom types
7 bond types
10 angle types
7 dihedral types

-2.9369999999999998 1.659 xlo xhi
-0.55200000000000005 2.665 ylo yhi
-1.0569999999999999 0.80800000000000005 zlo zhi

Masses

1 14.01
2 1.008
3 12.01
4 1.008
5 12.01
6 16.0
7 1.008
8 16.0

Pair Coeffs

1 0.16999999991766696 3.2499985240310356
2 0.015700000004219245 1.0690784617205229
3 0.10939999991572773 3.3996695084507409
4 0.015700000098461422 2.4713530426421655
5 0.086000000128358844 3.3996695079448309
6 0.2104000002486992 3.0664733874581418
7 0.0 0.0
8 0.20999999984182244 2.9599219016446874

Bond Coeffs

1 369.60000000000002 0.97399999999999998
2 466.39999999999998 1.306
3 648.0 1.214
4 335.89999999999998 1.093
5 328.30000000000001 1.508
6 394.10000000000002 1.018
7 320.60000000000002 1.47

Angle Coeffs

1 77.379999999999995 122.88005243419641
2 51.189999999999998 107.37004595887495
3 47.630000000000003 107.66004625504924
4 39.18 109.55004723694461
5 69.840000000000003 112.20004808619127
6 68.030000000000001 123.1100525900646
7 47.130000000000003 109.92004733822183
8 41.299999999999997 107.13004597060835
9 49.390000000000001 109.92004733822183
10 66.590000000000003 111.14004751730948

Dihedral Coeffs

1 1.8999999999999999 1 1
2 2.2999999999999998 -1 2
3 0.0 -1 2
4 0.80000000000000004 1 1
5 0.080000000000000002 -1 3
6 0.29999999999999999 1 3
7 1.1000000000000001 -1 2

Atoms

1 0 1 0.0 -2.8159999999999998 0.80600000000000005 -0.11899999999999999
2 0 2 0.0 -2.8849999999999998 1.474 -1.0009999999999999
3 0 2 0.0 -2.9369999999999998 1.4039999999999999 0.80800000000000005
4 0 3 0.0 -1.4650000000000001 0.13 -0.107
5 0 4 0.0 -1.387 -0.55200000000000005 0.80300000000000005
6 0 4 0.0 -1.3420000000000001 -0.48799999999999999 -1.0569999999999999
7 0 5 0.0 -0.36199999999999999 1.202 -0.047
8 0 6 0.0 1.089 0.79000000000000004 0.032000000000000001
9 0 7 0.0 1.659 1.55 0.60699999999999998
10 0 8 0.0 -0.73299999999999998 2.665 -0.023

Bonds

1 1 8 9
2 4 4 5
3 4 4 6
4 6 1 2
5 6 1 3
6 2 7 8
7 3 7 10
8 5 4 7
9 7 1 4

Angles

1 2 7 8 9
2 3 6 4 7
3 4 5 4 6
4 3 5 4 7
5 7 3 1 4
6 8 2 1 3
7 7 2 1 4
8 9 1 4 5
9 9 1 4 6
10 1 8 7 10
11 5 4 7 8
12 6 4 7 10
13 10 1 4 7

Dihedrals

1 1 9 8 7 10
2 2 9 8 7 10
3 3 6 4 7 8
4 4 6 4 7 10
5 5 6 4 7 10
6 3 5 4 7 8
7 4 5 4 7 10
8 5 5 4 7 10
9 2 4 7 8 9
10 6 3 1 4 5
11 6 3 1 4 6
12 6 3 1 4 7
13 6 2 1 4 5
14 6 2 1 4 6
15 6 2 1 4 7
16 3 1 4 7 8
17 3 1 4 7 10
18 7 4 10 7 8

