LAMMPS data file for default_name

19 atoms
19 bonds
31 angles
44 dihedrals
0 impropers

6 atom types
6 bond types
7 angle types
4 dihedral types

-1.0820000000000001 5.0350000000000001 xlo xhi
-2.6259999999999999 3.2400000000000002 ylo yhi
-0.28699999999999998 3.2440000000000002 zlo zhi

Masses

1 16.0
2 1.008
3 12.01
4 12.01
5 1.008
6 1.008

Pair Coeffs

1 0.2104000002486992 3.0664733874581418
2 0.0 0.0
3 0.086000000128358844 3.3996695079448309
4 0.10939999991572773 3.3996695084507409
5 0.01570000002623629 2.6495327872602221
6 0.015000000064220668 2.5996424587350853

Bond Coeffs

1 337.30000000000001 1.0920000000000001
2 323.5 1.5129999999999999
3 344.30000000000001 1.087
4 478.39999999999998 1.387
5 369.60000000000002 0.97399999999999998
6 386.10000000000002 1.3620000000000001

Angle Coeffs

1 39.43 108.3500467226538
2 46.960000000000001 110.15004749409002
3 48.460000000000001 120.01005126147997
4 63.840000000000003 120.63005175638003
5 67.180000000000007 119.97005135892852
6 48.850000000000001 109.47004685888388
7 69.849999999999994 119.94005128877545

Dihedral Coeffs

1 3.625 -1 2
2 0.0 1 2
3 0.90000000000000002 -1 2
4 1.1000000000000001 -1 2

Atoms

1 0 1 0.0 3.2879999999999998 2.21 1.679
2 0 2 0.0 3.423 2.4809999999999999 2.7469999999999999
3 0 3 0.0 2.363 1.022 1.5760000000000001
4 0 3 0.0 0.92000000000000004 1.212 1.075
5 0 4 0.0 0.443 2.6019999999999999 0.62
6 0 5 0.0 -0.23899999999999999 2.4889999999999999 -0.28699999999999998
7 0 5 0.0 1.345 3.2400000000000002 0.34200000000000003
8 0 5 0.0 -0.13200000000000001 3.1019999999999999 1.468
9 0 3 0.0 -0.02 -0.001 0.95499999999999996
10 0 6 0.0 -1.0820000000000001 0.13700000000000001 0.56499999999999995
11 0 3 0.0 0.47399999999999998 -1.401 1.3640000000000001
12 0 6 0.0 -0.22700000000000001 -2.2959999999999998 1.292
13 0 3 0.0 1.917 -1.5900000000000001 1.8680000000000001
14 0 6 0.0 2.2829999999999999 -2.6259999999999999 2.1720000000000002
15 0 3 0.0 2.867 -0.38100000000000001 1.956
16 0 4 0.0 4.3079999999999998 -0.56799999999999995 2.4660000000000002
17 0 5 0.0 5.0350000000000001 -0.47299999999999998 1.593
18 0 5 0.0 4.4119999999999999 -1.601 2.9359999999999999
19 0 5 0.0 4.5430000000000001 0.23000000000000001 3.2440000000000002

Bonds

1 1 16 17
2 1 16 18
3 1 16 19
4 3 13 14
5 3 11 12
6 3 9 10
7 1 5 6
8 1 5 7
9 1 5 8
10 5 1 2
11 2 15 16
12 4 13 15
13 4 11 13
14 4 9 11
15 2 4 5
16 4 4 9
17 4 3 4
18 4 3 15
19 6 1 3

Angles

1 1 18 16 19
2 1 17 16 18
3 1 17 16 19
4 2 15 16 17
5 2 15 16 18
6 2 15 16 19
7 3 14 13 15
8 3 12 11 13
9 3 11 13 14
10 3 10 9 11
11 3 9 11 12
12 1 7 5 8
13 1 6 5 7
14 1 6 5 8
15 2 4 5 6
16 2 4 5 7
17 2 4 5 8
18 3 4 9 10
19 6 2 1 3
20 4 13 15 16
21 5 11 13 15
22 5 9 11 13
23 4 5 4 9
24 5 4 3 15
25 5 4 9 11
26 4 3 4 5
27 5 3 4 9
28 5 3 15 13
29 4 3 15 16
30 7 1 3 4
31 7 1 3 15

Dihedrals

1 1 14 13 15 16
2 2 13 15 16 17
3 2 13 15 16 18
4 2 13 15 16 19
5 1 12 11 13 14
6 1 12 11 13 15
7 1 10 9 11 12
8 1 10 9 11 13
9 1 9 11 13 14
10 2 8 5 4 9
11 2 7 5 4 9
12 2 6 5 4 9
13 1 5 4 9 10
14 1 4 9 11 12
15 2 3 4 5 6
16 2 3 4 5 7
17 2 3 4 5 8
18 1 3 4 9 10
19 1 3 15 13 14
20 2 3 15 16 17
21 2 3 15 16 18
22 2 3 15 16 19
23 3 2 1 3 4
24 3 2 1 3 15
25 4 11 15 13 14
26 4 9 13 11 12
27 4 4 11 9 10
28 1 11 13 15 16
29 1 9 4 3 15
30 1 9 11 13 15
31 1 5 4 3 15
32 1 5 4 9 11
33 1 4 3 15 13
34 1 4 3 15 16
35 1 4 9 11 13
36 1 3 4 9 11
37 1 3 15 13 11
38 1 1 3 4 5
39 1 1 3 4 9
40 1 1 3 15 13
41 1 1 3 15 16
42 4 3 13 15 16
43 4 5 3 4 9
44 4 1 3 15 4

