LAMMPS data file for default_name

17 atoms
16 bonds
28 angles
32 dihedrals
0 impropers

6 atom types
7 bond types
11 angle types
10 dihedral types

-5.5300000000000002 -1.375 xlo xhi
-2.9729999999999999 3.2810000000000001 ylo yhi
-1.016 2.3029999999999999 zlo zhi

Masses

1 12.01
2 1.008
3 12.01
4 16.0
5 16.0
6 1.008

Pair Coeffs

1 0.10939999991572773 3.3996695084507409
2 0.01570000002623629 2.6495327872602221
3 0.086000000128358844 3.3996695079448309
4 0.20999999984182244 2.9599219016446874
5 0.17000000010548533 3.0000123432245225
6 0.015700000098461422 2.4713530426421655

Bond Coeffs

1 335.89999999999998 1.093
2 301.5 1.4390000000000001
3 648.0 1.214
4 411.30000000000001 1.343
5 337.30000000000001 1.0920000000000001
6 303.10000000000002 1.5349999999999999
7 328.30000000000001 1.508

Angle Coeffs

1 39.18 109.55004723694461
2 50.840000000000003 108.82004686678859
3 75.930000000000007 123.33005291353435
4 63.630000000000003 115.1400492316122
5 47.200000000000003 109.68004677699743
6 39.43 108.3500467226538
7 46.369999999999997 110.05004745123244
8 63.789999999999999 110.53004742776565
9 68.030000000000001 123.1100525900646
10 69.260000000000005 111.96004809792466
11 63.210000000000001 110.63004747062323

Dihedral Coeffs

1 1.3999999999999999 -1 1
2 2.7000000000000002 -1 2
3 0.383333333 1 3
4 0.80000000000000004 1 1
5 0.080000000000000002 -1 3
6 0.0 -1 2
7 0.14999999999999999 1 3
8 0.15555555600000001 1 3
9 0.16 1 3
10 10.5 -1 2

Atoms

1 0 1 0.0 -4.9809999999999999 1.444 0.002
2 0 2 0.0 -5.3109999999999999 0.72699999999999998 0.82399999999999995
3 0 2 0.0 -5.2240000000000002 0.99299999999999999 -1.016
4 0 2 0.0 -5.5300000000000002 2.4369999999999998 0.12
5 0 1 0.0 -3.4630000000000001 1.681 0.107
6 0 1 0.0 -3.129 2.286 1.482
7 0 2 0.0 -3.4620000000000002 1.5680000000000001 2.3029999999999999
8 0 2 0.0 -3.6739999999999999 3.2810000000000001 1.6020000000000001
9 0 2 0.0 -2.0049999999999999 2.4550000000000001 1.5589999999999999
10 0 2 0.0 -3.1309999999999998 2.3959999999999999 -0.71699999999999997
11 0 3 0.0 -2.7320000000000002 0.33600000000000002 -0.051999999999999998
12 0 4 0.0 -1.375 0.13500000000000001 0.57999999999999996
13 0 5 0.0 -3.4390000000000001 -0.82699999999999996 -0.70299999999999996
14 0 1 0.0 -3.1200000000000001 -2.089 0.060999999999999999
15 0 6 0.0 -3.6499999999999999 -2.9729999999999999 -0.42699999999999999
16 0 6 0.0 -3.4750000000000001 -1.978 1.139
17 0 6 0.0 -1.994 -2.2650000000000001 0.049000000000000002

Bonds

1 1 14 15
2 1 14 16
3 1 14 17
4 5 6 7
5 5 6 8
6 5 6 9
7 5 5 10
8 5 1 2
9 5 1 3
10 5 1 4
11 2 13 14
12 3 11 12
13 4 11 13
14 6 5 6
15 7 5 11
16 6 1 5

Angles

1 1 16 14 17
2 1 15 14 16
3 1 15 14 17
4 2 13 14 15
5 2 13 14 16
6 2 13 14 17
7 5 10 5 11
8 6 8 6 9
9 6 7 6 8
10 6 7 6 9
11 7 6 5 10
12 7 5 6 7
13 7 5 6 8
14 7 5 6 9
15 7 4 1 5
16 6 3 1 4
17 7 3 1 5
18 6 2 1 3
19 6 2 1 4
20 7 2 1 5
21 7 1 5 10
22 3 12 11 13
23 4 11 13 14
24 8 6 5 11
25 9 5 11 12
26 10 5 11 13
27 11 1 5 6
28 8 1 5 11

Dihedrals

1 3 11 13 14 15
2 3 11 13 14 16
3 3 11 13 14 17
4 4 10 5 11 12
5 5 10 5 11 12
6 6 10 5 11 13
7 7 9 6 5 10
8 8 9 6 5 11
9 7 8 6 5 10
10 8 8 6 5 11
11 7 7 6 5 10
12 8 7 6 5 11
13 9 4 1 5 6
14 7 4 1 5 10
15 8 4 1 5 11
16 9 3 1 5 6
17 7 3 1 5 10
18 8 3 1 5 11
19 9 2 1 5 6
20 7 2 1 5 10
21 8 2 1 5 11
22 9 1 5 6 7
23 9 1 5 6 8
24 9 1 5 6 9
25 1 12 11 13 14
26 2 12 11 13 14
27 6 6 5 11 12
28 6 6 5 11 13
29 2 5 11 13 14
30 6 1 5 11 12
31 6 1 5 11 13
32 10 5 12 11 13

