LAMMPS data file for default_name

21 atoms
21 bonds
36 angles
51 dihedrals
0 impropers

4 atom types
5 bond types
7 angle types
5 dihedral types

-3.3599999999999999 1.897 xlo xhi
-3.3050000000000002 5.0720000000000001 ylo yhi
-0.57999999999999996 2.0640000000000001 zlo zhi

Masses

1 12.01
2 1.008
3 12.01
4 1.008

Pair Coeffs

1 0.10939999991572773 3.3996695084507409
2 0.01570000002623629 2.6495327872602221
3 0.086000000128358844 3.3996695079448309
4 0.015000000064220668 2.5996424587350853

Bond Coeffs

1 344.30000000000001 1.087
2 478.39999999999998 1.387
3 337.30000000000001 1.0920000000000001
4 323.5 1.5129999999999999
5 303.10000000000002 1.5349999999999999

Angle Coeffs

1 48.460000000000001 120.01005126147997
2 39.43 108.3500467226538
3 63.840000000000003 120.63005175638003
4 46.960000000000001 110.15004749409002
5 67.180000000000007 119.97005135892852
6 46.369999999999997 110.05004745123244
7 63.25 112.09004821093528

Dihedral Coeffs

1 3.625 -1 2
2 0.0 1 2
3 0.14999999999999999 1 3
4 0.15555555600000001 1 3
5 1.1000000000000001 -1 2

Atoms

1 0 1 0.0 -0.71099999999999997 4.0039999999999996 0.44600000000000001
2 0 2 0.0 -0.38300000000000001 3.633 -0.57999999999999996
3 0 2 0.0 0.17499999999999999 3.976 1.159
4 0 2 0.0 -1.097 5.0720000000000001 0.35899999999999999
5 0 1 0.0 -1.829 3.093 0.98699999999999999
6 0 2 0.0 -2.1549999999999998 3.4569999999999999 2.0190000000000001
7 0 2 0.0 -2.718 3.1179999999999999 0.27400000000000002
8 0 3 0.0 -1.2909999999999999 1.655 1.0860000000000001
9 0 3 0.0 0.219 1.415 1.2689999999999999
10 0 4 0.0 0.92400000000000004 2.3010000000000002 1.4019999999999999
11 0 3 0.0 0.77700000000000002 -0.019 1.258
12 0 4 0.0 1.897 -0.19700000000000001 1.387
13 0 3 0.0 -0.17499999999999999 -1.212 1.0660000000000001
14 0 1 0.0 0.38800000000000001 -2.6419999999999999 1.0029999999999999
15 0 2 0.0 0.51000000000000001 -3.044 2.0640000000000001
16 0 2 0.0 1.4039999999999999 -2.625 0.48299999999999998
17 0 2 0.0 -0.32900000000000001 -3.3050000000000002 0.42299999999999999
18 0 3 0.0 -1.6819999999999999 -0.97299999999999998 0.86299999999999999
19 0 4 0.0 -2.3820000000000001 -1.8560000000000001 0.69499999999999995
20 0 3 0.0 -2.242 0.46100000000000002 0.88600000000000001
21 0 4 0.0 -3.3599999999999999 0.63900000000000001 0.74199999999999999

Bonds

1 1 20 21
2 1 18 19
3 3 14 15
4 3 14 16
5 3 14 17
6 1 11 12
7 1 9 10
8 3 5 6
9 3 5 7
10 3 1 2
11 3 1 3
12 3 1 4
13 2 18 20
14 4 13 14
15 2 13 18
16 2 11 13
17 2 9 11
18 2 8 9
19 2 8 20
20 4 5 8
21 5 1 5

Angles

1 1 19 18 20
2 1 18 20 21
3 2 16 14 17
4 2 15 14 16
5 2 15 14 17
6 4 13 14 15
7 4 13 14 16
8 4 13 14 17
9 1 13 18 19
10 1 12 11 13
11 1 10 9 11
12 1 9 11 12
13 1 8 9 10
14 1 8 20 21
15 4 7 5 8
16 2 6 5 7
17 4 6 5 8
18 6 4 1 5
19 2 3 1 4
20 6 3 1 5
21 2 2 1 3
22 2 2 1 4
23 6 2 1 5
24 6 1 5 6
25 6 1 5 7
26 3 14 13 18
27 5 13 18 20
28 3 11 13 14
29 5 11 13 18
30 5 9 8 20
31 5 9 11 13
32 5 8 9 11
33 5 8 20 18
34 3 5 8 9
35 3 5 8 20
36 7 1 5 8

Dihedrals

1 1 19 18 20 21
2 2 17 14 13 18
3 2 16 14 13 18
4 2 15 14 13 18
5 1 14 13 18 19
6 1 13 18 20 21
7 1 12 11 13 14
8 1 12 11 13 18
9 2 11 13 14 15
10 2 11 13 14 16
11 2 11 13 14 17
12 1 11 13 18 19
13 1 10 9 8 20
14 1 10 9 11 12
15 1 10 9 11 13
16 1 9 8 20 21
17 1 8 9 11 12
18 1 8 20 18 19
19 2 7 5 8 9
20 2 7 5 8 20
21 2 6 5 8 9
22 2 6 5 8 20
23 1 5 8 9 10
24 1 5 8 20 21
25 3 4 1 5 6
26 3 4 1 5 7
27 4 4 1 5 8
28 3 3 1 5 6
29 3 3 1 5 7
30 4 3 1 5 8
31 3 2 1 5 6
32 3 2 1 5 7
33 4 2 1 5 8
34 5 8 18 20 21
35 5 13 20 18 19
36 5 9 13 11 12
37 5 8 11 9 10
38 1 14 13 18 20
39 1 11 9 8 20
40 1 11 13 18 20
41 1 9 8 20 18
42 1 9 11 13 14
43 1 9 11 13 18
44 1 8 9 11 13
45 1 8 20 18 13
46 1 5 8 9 11
47 1 5 8 20 18
48 2 1 5 8 9
49 2 1 5 8 20
50 5 11 18 13 14
51 5 5 9 8 20

