LAMMPS data file for default_name

14 atoms
13 bonds
20 angles
31 dihedrals
0 impropers

8 atom types
9 bond types
13 angle types
14 dihedral types

-4.8760000000000003 1.996 xlo xhi
-1.0569999999999999 3.1760000000000002 ylo yhi
-1.0860000000000001 1.518 zlo zhi

Masses

1 16.0
2 12.01
3 1.008
4 16.0
5 12.01
6 1.008
7 16.0
8 1.008

Pair Coeffs

1 0.20999999984182244 2.9599219016446874
2 0.086000000128358844 3.3996695079448309
3 0.014999999991481437 2.5105525875831352
4 0.17000000010548533 3.0000123432245225
5 0.10939999991572773 3.3996695084507409
6 0.015700000098461422 2.4713530426421655
7 0.2104000002486992 3.0664733874581418
8 0.0 0.0

Bond Coeffs

1 369.60000000000002 0.97399999999999998
2 335.89999999999998 1.093
3 314.10000000000002 1.4259999999999999
4 303.10000000000002 1.5349999999999999
5 301.5 1.4390000000000001
6 648.0 1.214
7 411.30000000000001 1.343
8 310.5 1.1123000000000001
9 290.10000000000002 1.55

Angle Coeffs

1 50.969999999999999 109.88004686271258
2 39.18 109.55004723694461
3 47.090000000000003 108.16004646933708
4 46.359999999999999 110.07004711602929
5 67.719999999999999 109.4300469563324
6 50.840000000000003 108.82004686678859
7 67.780000000000001 108.42004669535831
8 75.930000000000007 123.33005291353435
9 63.630000000000003 115.1400492316122
10 44.619999999999997 116.36004998365766
11 67.159999999999997 120.99005202525883
12 68.180000000000007 111.3900479109323
13 54.280000000000001 120.93005188495273

Dihedral Coeffs

1 0.16666666699999999 1 3
2 0.15555555600000001 1 3
3 0.25 1 1
4 0.0 1 3
5 0.16 1 3
6 1.175 1 2
7 0.14399999999999999 1 3
8 1.3999999999999999 -1 1
9 2.7000000000000002 -1 2
10 0.383333333 1 3
11 0.80000000000000004 -1 1
12 0.38300000000000001 1 3
13 0.29999999999999999 -1 2
14 10.5 -1 2

Atoms

1 0 1 0.0 1.0009999999999999 -0.63500000000000001 -0.042000000000000003
2 0 2 0.0 1.024 0.86199999999999999 0.155
3 0 3 0.0 1.996 1.385 0.439
4 0 2 0.0 -0.26800000000000002 1.681 -0.025999999999999999
5 0 1 0.0 -0.25 3.1760000000000002 0.188
6 0 4 0.0 -1.5589999999999999 0.98699999999999999 -0.38700000000000001
7 0 5 0.0 -2.6890000000000001 1.603 0.40400000000000003
8 0 6 0.0 -2.4900000000000002 1.466 1.518
9 0 6 0.0 -2.7570000000000001 2.7149999999999999 0.16400000000000001
10 0 5 0.0 -4.0129999999999999 0.91300000000000003 0.028000000000000001
11 0 6 0.0 -4.2110000000000003 1.0529999999999999 -1.0860000000000001
12 0 6 0.0 -4.8659999999999997 1.3779999999999999 0.625
13 0 7 0.0 -3.9209999999999998 -0.56000000000000005 0.34300000000000003
14 0 8 0.0 -4.8760000000000003 -1.0569999999999999 0.070999999999999994

Bonds

1 1 13 14
2 2 10 11
3 2 10 12
4 2 7 8
5 2 7 9
6 8 2 3
7 3 10 13
8 4 7 10
9 5 6 7
10 6 4 5
11 7 4 6
12 9 2 4
13 6 1 2

Angles

1 1 12 10 13
2 2 11 10 12
3 1 11 10 13
4 3 10 13 14
5 4 9 7 10
6 2 8 7 9
7 4 8 7 10
8 4 7 10 11
9 4 7 10 12
10 6 6 7 8
11 6 6 7 9
12 10 3 2 4
13 13 1 2 3
14 5 7 10 13
15 7 6 7 10
16 8 5 4 6
17 9 4 6 7
18 11 2 4 5
19 12 2 4 6
20 11 1 2 4

Dihedrals

1 1 12 10 13 14
2 1 11 10 13 14
3 2 9 7 10 11
4 2 9 7 10 12
5 3 9 7 10 13
6 4 9 7 10 13
7 2 8 7 10 11
8 2 8 7 10 12
9 3 8 7 10 13
10 4 8 7 10 13
11 3 7 10 13 14
12 5 7 10 13 14
13 3 6 7 10 11
14 4 6 7 10 11
15 3 6 7 10 12
16 4 6 7 10 12
17 10 4 6 7 8
18 10 4 6 7 9
19 13 3 2 4 5
20 13 3 2 4 6
21 14 1 2 3 4
22 6 6 7 10 13
23 7 6 7 10 13
24 8 5 4 6 7
25 9 5 4 6 7
26 11 4 6 7 10
27 12 4 6 7 10
28 9 2 4 6 7
29 13 1 2 4 5
30 13 1 2 4 6
31 14 2 5 4 6

