LAMMPS data file for default_name

52 atoms
51 bonds
96 angles
163 dihedrals
0 impropers

8 atom types
11 bond types
21 angle types
20 dihedral types

-7.1070000000000002 11.869 xlo xhi
-1.2869999999999999 2.9369999999999998 ylo yhi
-1.379 4.4630000000000001 zlo zhi

Masses

1 14.01
2 1.008
3 12.01
4 1.008
5 1.008
6 12.01
7 16.0
8 1.008

Pair Coeffs

1 0.16999999991766696 3.2499985240310356
2 0.015700000004219245 1.0690784617205229
3 0.10939999991572773 3.3996695084507409
4 0.015700000098461422 2.4713530426421655
5 0.01570000002623629 2.6495327872602221
6 0.086000000128358844 3.3996695079448309
7 0.20999999984182244 2.9599219016446874
8 0.014999999991481437 2.5105525875831352

Bond Coeffs

1 310.5 1.1123000000000001
2 648.0 1.214
3 337.30000000000001 1.0920000000000001
4 328.30000000000001 1.508
5 303.10000000000002 1.5349999999999999
6 410.19999999999999 1.0089999999999999
7 478.19999999999999 1.345
8 335.89999999999998 1.093
9 330.60000000000002 1.46
10 394.10000000000002 1.018
11 320.60000000000002 1.47

Angle Coeffs

1 54.280000000000001 120.93005188495273
2 47.200000000000003 109.68004677699743
3 39.43 108.3500467226538
4 46.109999999999999 114.40004902905777
5 68.030000000000001 123.1100525900646
6 46.369999999999997 110.05004745123244
7 63.789999999999999 110.53004742776565
8 63.210000000000001 110.63004747062323
9 49.210000000000001 118.46005088366657
10 75.829999999999998 122.03005235638598
11 67.859999999999999 115.15004963696842
12 49.82 109.32004708107642
13 39.18 109.55004723694461
14 46.039999999999999 116.78004981988477
15 63.920000000000002 121.35005229413763
16 46.359999999999999 110.07004711602929
17 65.849999999999994 112.13004811348674
18 47.130000000000003 109.92004733822183
19 41.299999999999997 107.13004597060835
20 49.390000000000001 109.92004733822183
21 66.180000000000007 110.38004707700041

Dihedral Coeffs

1 0.0 -1 2
2 0.80000000000000004 1 1
3 0.080000000000000002 -1 3
4 0.14999999999999999 1 3
5 0.15555555600000001 1 3
6 0.16 1 3
7 0.20000000000000001 -1 1
8 0.25 -1 2
9 0.17999999999999999 1 3
10 2.0 1 1
11 2.5 -1 2
12 0.070000000000000007 1 2
13 0.10000000000000001 1 4
14 0.0 1 2
15 0.53000000000000003 1 1
16 0.14999999999999999 -1 3
17 0.5 -1 4
18 0.29999999999999999 1 3
19 10.5 -1 2
20 1.1000000000000001 -1 2

Atoms

1 0 1 0.0 -6.2839999999999998 0.55600000000000005 -0.53900000000000003
2 0 2 0.0 -5.8390000000000004 -0.017000000000000001 -1.379
3 0 2 0.0 -7.1070000000000002 1.1950000000000001 -0.92200000000000004
4 0 3 0.0 -5.2249999999999996 1.4259999999999999 0.094
5 0 4 0.0 -4.8109999999999999 2.1499999999999999 -0.68300000000000005
6 0 4 0.0 -5.6820000000000004 2.0129999999999999 0.95799999999999996
7 0 3 0.0 -4.0839999999999996 0.53900000000000003 0.626
8 0 5 0.0 -3.6219999999999999 -0.048000000000000001 -0.23499999999999999
9 0 5 0.0 -4.4980000000000002 -0.188 1.3999999999999999
10 0 3 0.0 -3.008 1.4239999999999999 1.282
11 0 5 0.0 -3.4740000000000002 2.0110000000000001 2.141
12 0 5 0.0 -2.5870000000000002 2.1509999999999998 0.51100000000000001
13 0 3 0.0 -1.8740000000000001 0.53500000000000003 1.827
14 0 5 0.0 -1.3979999999999999 -0.047 0.97099999999999997
15 0 5 0.0 -2.3010000000000002 -0.193 2.5939999999999999
16 0 3 0.0 -0.80800000000000005 1.4179999999999999 2.504
17 0 5 0.0 -1.2869999999999999 2.0019999999999998 3.3580000000000001
18 0 5 0.0 -0.372 2.145 1.7410000000000001
19 0 3 0.0 0.315 0.52400000000000002 3.0609999999999999
20 0 4 0.0 -0.11799999999999999 -0.20699999999999999 3.8199999999999998
21 0 4 0.0 1.103 1.177 3.5649999999999999
22 0 1 0.0 0.95499999999999996 -0.23999999999999999 1.927
23 0 2 0.0 0.65200000000000002 -1.2869999999999999 1.7190000000000001
24 0 6 0.0 2.0819999999999999 0.39100000000000001 1.1459999999999999
25 0 7 0.0 2.7559999999999998 -0.375 0.034000000000000002
26 0 3 0.0 2.4860000000000002 1.8480000000000001 1.4359999999999999
27 0 5 0.0 1.5509999999999999 2.456 1.6719999999999999
28 0 5 0.0 3.016 2.2919999999999998 0.53000000000000003
29 0 3 0.0 3.427 1.8620000000000001 2.653
30 0 5 0.0 3.7200000000000002 2.9369999999999998 2.895
31 0 5 0.0 2.8879999999999999 1.4039999999999999 3.5470000000000002
32 0 3 0.0 4.6959999999999997 1.046 2.343
33 0 5 0.0 4.4119999999999999 -0.029999999999999999 2.0920000000000001
34 0 5 0.0 5.2469999999999999 1.5129999999999999 1.4610000000000001
35 0 3 0.0 5.5960000000000001 1.0700000000000001 3.5910000000000002
36 0 5 0.0 5.8479999999999999 2.1520000000000001 3.8479999999999999
37 0 5 0.0 5.0359999999999996 0.59599999999999997 4.4630000000000001
38 0 3 0.0 6.9080000000000004 0.29799999999999999 3.3500000000000001
39 0 5 0.0 7.5339999999999998 0.34399999999999997 4.3010000000000002
40 0 5 0.0 6.6829999999999998 -0.79000000000000004 3.0979999999999999
41 0 3 0.0 7.702 0.94599999999999995 2.2000000000000002
42 0 5 0.0 7.1159999999999997 0.86399999999999999 1.2250000000000001
43 0 5 0.0 7.8819999999999997 2.0449999999999999 2.444
44 0 3 0.0 9.0640000000000001 0.23599999999999999 2.0779999999999998
45 0 5 0.0 9.6140000000000008 0.33500000000000002 3.0710000000000002
46 0 5 0.0 8.907 -0.86799999999999999 1.841
47 0 3 0.0 9.9120000000000008 0.88700000000000001 0.96999999999999997
48 0 5 0.0 10.037000000000001 2.0 1.1830000000000001
49 0 5 0.0 9.3970000000000002 0.746 -0.036999999999999998
50 0 6 0.0 11.297000000000001 0.216 0.94299999999999995
51 0 8 0.0 11.859 0.029000000000000001 1.917
52 0 7 0.0 11.869 -0.27500000000000002 -0.36499999999999999

Bonds

1 1 50 51
2 3 47 48
3 3 47 49
4 3 44 45
5 3 44 46
6 3 41 42
7 3 41 43
8 3 38 39
9 3 38 40
10 3 35 36
11 3 35 37
12 3 32 33
13 3 32 34
14 3 29 30
15 3 29 31
16 3 26 27
17 3 26 28
18 6 22 23
19 8 19 20
20 8 19 21
21 3 16 17
22 3 16 18
23 3 13 14
24 3 13 15
25 3 10 11
26 3 10 12
27 3 7 8
28 3 7 9
29 8 4 5
30 8 4 6
31 10 1 2
32 10 1 3
33 2 50 52
34 4 47 50
35 5 44 47
36 5 41 44
37 5 38 41
38 5 35 38
39 5 32 35
40 5 29 32
41 5 26 29
42 2 24 25
43 4 24 26
44 7 22 24
45 9 19 22
46 5 16 19
47 5 13 16
48 5 10 13
49 5 7 10
50 5 4 7
51 11 1 4

Angles

1 1 51 50 52
2 2 49 47 50
3 3 48 47 49
4 2 48 47 50
5 4 47 50 51
6 6 46 44 47
7 3 45 44 46
8 6 45 44 47
9 6 44 47 48
10 6 44 47 49
11 6 43 41 44
12 3 42 41 43
13 6 42 41 44
14 6 41 44 45
15 6 41 44 46
16 6 40 38 41
17 3 39 38 40
18 6 39 38 41
19 6 38 41 42
20 6 38 41 43
21 6 37 35 38
22 3 36 35 37
23 6 36 35 38
24 6 35 38 39
25 6 35 38 40
26 6 34 32 35
27 3 33 32 34
28 6 33 32 35
29 6 32 35 36
30 6 32 35 37
31 6 31 29 32
32 3 30 29 31
33 6 30 29 32
34 6 29 32 33
35 6 29 32 34
36 6 28 26 29
37 3 27 26 28
38 6 27 26 29
39 6 26 29 30
40 6 26 29 31
41 2 24 26 27
42 2 24 26 28
43 9 23 22 24
44 12 21 19 22
45 13 20 19 21
46 12 20 19 22
47 14 19 22 23
48 6 18 16 19
49 3 17 16 18
50 6 17 16 19
51 16 16 19 20
52 16 16 19 21
53 6 15 13 16
54 3 14 13 15
55 6 14 13 16
56 6 13 16 17
57 6 13 16 18
58 6 12 10 13
59 3 11 10 12
60 6 11 10 13
61 6 10 13 14
62 6 10 13 15
63 6 9 7 10
64 3 8 7 9
65 6 8 7 10
66 6 7 10 11
67 6 7 10 12
68 16 6 4 7
69 13 5 4 6
70 16 5 4 7
71 6 4 7 8
72 6 4 7 9
73 18 3 1 4
74 19 2 1 3
75 18 2 1 4
76 20 1 4 5
77 20 1 4 6
78 5 47 50 52
79 7 44 47 50
80 8 41 44 47
81 8 38 41 44
82 8 35 38 41
83 8 32 35 38
84 8 29 32 35
85 8 26 29 32
86 5 25 24 26
87 7 24 26 29
88 10 22 24 25
89 11 22 24 26
90 15 19 22 24
91 17 16 19 22
92 8 13 16 19
93 8 10 13 16
94 8 7 10 13
95 8 4 7 10
96 21 1 4 7

Dihedrals

1 1 49 47 50 51
2 2 49 47 50 52
3 3 49 47 50 52
4 1 48 47 50 51
5 2 48 47 50 52
6 3 48 47 50 52
7 4 46 44 47 48
8 4 46 44 47 49
9 5 46 44 47 50
10 4 45 44 47 48
11 4 45 44 47 49
12 5 45 44 47 50
13 1 44 47 50 51
14 4 43 41 44 45
15 4 43 41 44 46
16 6 43 41 44 47
17 4 42 41 44 45
18 4 42 41 44 46
19 6 42 41 44 47
20 6 41 44 47 48
21 6 41 44 47 49
22 4 40 38 41 42
23 4 40 38 41 43
24 6 40 38 41 44
25 4 39 38 41 42
26 4 39 38 41 43
27 6 39 38 41 44
28 6 38 41 44 45
29 6 38 41 44 46
30 4 37 35 38 39
31 4 37 35 38 40
32 6 37 35 38 41
33 4 36 35 38 39
34 4 36 35 38 40
35 6 36 35 38 41
36 6 35 38 41 42
37 6 35 38 41 43
38 4 34 32 35 36
39 4 34 32 35 37
40 6 34 32 35 38
41 4 33 32 35 36
42 4 33 32 35 37
43 6 33 32 35 38
44 6 32 35 38 39
45 6 32 35 38 40
46 4 31 29 32 33
47 4 31 29 32 34
48 6 31 29 32 35
49 4 30 29 32 33
50 4 30 29 32 34
51 6 30 29 32 35
52 6 29 32 35 36
53 6 29 32 35 37
54 4 28 26 29 30
55 4 28 26 29 31
56 6 28 26 29 32
57 4 27 26 29 30
58 4 27 26 29 31
59 6 27 26 29 32
60 6 26 29 32 33
61 6 26 29 32 34
62 2 25 24 26 27
63 3 25 24 26 27
64 2 25 24 26 28
65 3 25 24 26 28
66 5 24 26 29 30
67 5 24 26 29 31
68 10 23 22 24 25
69 11 23 22 24 25
70 11 23 22 24 26
71 1 22 24 26 27
72 1 22 24 26 28
73 14 21 19 22 23
74 14 21 19 22 24
75 14 20 19 22 23
76 14 20 19 22 24
77 5 18 16 19 20
78 5 18 16 19 21
79 5 18 16 19 22
80 5 17 16 19 20
81 5 17 16 19 21
82 5 17 16 19 22
83 14 16 19 22 23
84 4 15 13 16 17
85 4 15 13 16 18
86 6 15 13 16 19
87 4 14 13 16 17
88 4 14 13 16 18
89 6 14 13 16 19
90 5 13 16 19 20
91 5 13 16 19 21
92 4 12 10 13 14
93 4 12 10 13 15
94 6 12 10 13 16
95 4 11 10 13 14
96 4 11 10 13 15
97 6 11 10 13 16
98 6 10 13 16 17
99 6 10 13 16 18
100 4 9 7 10 11
101 4 9 7 10 12
102 6 9 7 10 13
103 4 8 7 10 11
104 4 8 7 10 12
105 6 8 7 10 13
106 6 7 10 13 14
107 6 7 10 13 15
108 5 6 4 7 8
109 5 6 4 7 9
110 5 6 4 7 10
111 5 5 4 7 8
112 5 5 4 7 9
113 5 5 4 7 10
114 6 4 7 10 11
115 6 4 7 10 12
116 18 3 1 4 5
117 18 3 1 4 6
118 18 3 1 4 7
119 18 2 1 4 5
120 18 2 1 4 6
121 18 2 1 4 7
122 5 1 4 7 8
123 5 1 4 7 9
124 19 47 51 50 52
125 20 24 19 22 23
126 1 44 47 50 52
127 5 41 44 47 50
128 7 38 41 44 47
129 8 38 41 44 47
130 9 38 41 44 47
131 7 35 38 41 44
132 8 35 38 41 44
133 9 35 38 41 44
134 7 32 35 38 41
135 8 32 35 38 41
136 9 32 35 38 41
137 7 29 32 35 38
138 8 29 32 35 38
139 9 29 32 35 38
140 7 26 29 32 35
141 8 26 29 32 35
142 9 26 29 32 35
143 1 25 24 26 29
144 5 24 26 29 32
145 12 22 24 26 29
146 13 22 24 26 29
147 11 19 22 24 25
148 11 19 22 24 26
149 15 16 19 22 24
150 16 16 19 22 24
151 17 16 19 22 24
152 5 13 16 19 22
153 7 10 13 16 19
154 8 10 13 16 19
155 9 10 13 16 19
156 7 7 10 13 16
157 8 7 10 13 16
158 9 7 10 13 16
159 7 4 7 10 13
160 8 4 7 10 13
161 9 4 7 10 13
162 5 1 4 7 10
163 19 26 22 24 25

