LAMMPS data file for default_name

14 atoms
13 bonds
22 angles
29 dihedrals
0 impropers

6 atom types
7 bond types
11 angle types
12 dihedral types

-3.8599999999999999 0.58599999999999997 xlo xhi
-0.91000000000000003 2.9649999999999999 ylo yhi
-0.42599999999999999 2.4409999999999998 zlo zhi

Masses

1 12.01
2 1.008
3 1.008
4 16.0
5 12.01
6 16.0

Pair Coeffs

1 0.10939999991572773 3.3996695084507409
2 0.01570000002623629 2.6495327872602221
3 0.015700000098461422 2.4713530426421655
4 0.17000000010548533 3.0000123432245225
5 0.086000000128358844 3.3996695079448309
6 0.20999999984182244 2.9599219016446874

Bond Coeffs

1 337.30000000000001 1.0920000000000001
2 328.30000000000001 1.508
3 648.0 1.214
4 411.30000000000001 1.343
5 335.89999999999998 1.093
6 301.5 1.4390000000000001
7 303.10000000000002 1.5349999999999999

Angle Coeffs

1 39.43 108.3500467226538
2 68.030000000000001 123.1100525900646
3 47.200000000000003 109.68004677699743
4 69.260000000000005 111.96004809792466
5 75.930000000000007 123.33005291353435
6 50.840000000000003 108.82004686678859
7 39.18 109.55004723694461
8 63.630000000000003 115.1400492316122
9 46.369999999999997 110.05004745123244
10 46.359999999999999 110.07004711602929
11 67.780000000000001 108.42004669535831

Dihedral Coeffs

1 0.80000000000000004 1 1
2 0.080000000000000002 -1 3
3 0.0 -1 2
4 0.383333333 1 3
5 2.7000000000000002 -1 2
6 1.3999999999999999 -1 1
7 0.15555555600000001 1 3
8 0.25 1 1
9 0.0 1 3
10 0.80000000000000004 -1 1
11 0.38300000000000001 1 3
12 10.5 -1 2

Atoms

1 0 1 0.0 -0.070000000000000007 1.0009999999999999 1.546
2 0 2 0.0 0.58599999999999997 1.262 2.4409999999999998
3 0 2 0.0 0.50900000000000001 0.32600000000000001 0.83299999999999996
4 0 2 0.0 -1.0049999999999999 0.45800000000000002 1.9059999999999999
5 0 1 0.0 -0.47699999999999998 2.2919999999999998 0.81299999999999994
6 0 3 0.0 0.45700000000000002 2.8370000000000002 0.45200000000000001
7 0 3 0.0 -1.0609999999999999 2.9649999999999999 1.5249999999999999
8 0 4 0.0 -1.3460000000000001 1.9430000000000001 -0.372
9 0 5 0.0 -2.5680000000000001 1.2050000000000001 0.11700000000000001
10 0 1 0.0 -2.4750000000000001 -0.29299999999999998 0.46400000000000002
11 0 2 0.0 -2.8319999999999999 -0.91000000000000003 -0.42599999999999999
12 0 2 0.0 -3.1299999999999999 -0.51600000000000001 1.3700000000000001
13 0 2 0.0 -1.393 -0.56000000000000005 0.70299999999999996
14 0 6 0.0 -3.8599999999999999 1.954 0.34100000000000003

Bonds

1 1 10 11
2 1 10 12
3 1 10 13
4 5 5 6
5 5 5 7
6 1 1 2
7 1 1 3
8 1 1 4
9 2 9 10
10 3 9 14
11 4 8 9
12 6 5 8
13 7 1 5

Angles

1 1 12 10 13
2 1 11 10 12
3 1 11 10 13
4 3 9 10 11
5 3 9 10 12
6 3 9 10 13
7 6 7 5 8
8 7 6 5 7
9 6 6 5 8
10 9 4 1 5
11 1 3 1 4
12 9 3 1 5
13 1 2 1 3
14 1 2 1 4
15 9 2 1 5
16 10 1 5 6
17 10 1 5 7
18 2 10 9 14
19 4 8 9 10
20 5 8 9 14
21 8 5 8 9
22 11 1 5 8

Dihedrals

1 1 13 10 9 14
2 2 13 10 9 14
3 1 12 10 9 14
4 2 12 10 9 14
5 1 11 10 9 14
6 2 11 10 9 14
7 3 8 9 10 11
8 3 8 9 10 12
9 3 8 9 10 13
10 4 7 5 8 9
11 4 6 5 8 9
12 7 4 1 5 6
13 7 4 1 5 7
14 8 4 1 5 8
15 9 4 1 5 8
16 7 3 1 5 6
17 7 3 1 5 7
18 8 3 1 5 8
19 9 3 1 5 8
20 7 2 1 5 6
21 7 2 1 5 7
22 8 2 1 5 8
23 9 2 1 5 8
24 5 5 8 9 10
25 6 5 8 9 14
26 5 5 8 9 14
27 10 1 5 8 9
28 11 1 5 8 9
29 12 10 14 9 8

