LAMMPS data file for default_name

13 atoms
12 bonds
19 angles
28 dihedrals
0 impropers

9 atom types
9 bond types
15 angle types
10 dihedral types

-2.9340000000000002 0.50800000000000001 xlo xhi
-2.117 2.2250000000000001 ylo yhi
-1.373 1.728 zlo zhi

Masses

1 16.0
2 12.01
3 1.008
4 12.01
5 14.01
6 1.008
7 1.008
8 16.0
9 1.008

Pair Coeffs

1 0.20999999984182244 2.9599219016446874
2 0.086000000128358844 3.3996695079448309
3 0.014999999991481437 2.5105525875831352
4 0.10939999991572773 3.3996695084507409
5 0.16999999991766696 3.2499985240310356
6 0.015700000004219245 1.0690784617205229
7 0.015700000098461422 2.4713530426421655
8 0.2104000002486992 3.0664733874581418
9 0.0 0.0

Bond Coeffs

1 369.60000000000002 0.97399999999999998
2 335.89999999999998 1.093
3 314.10000000000002 1.4259999999999999
4 394.10000000000002 1.018
5 320.60000000000002 1.47
6 303.10000000000002 1.5349999999999999
7 310.5 1.1123000000000001
8 328.30000000000001 1.508
9 648.0 1.214

Angle Coeffs

1 50.969999999999999 109.88004686271258
2 39.18 109.55004723694461
3 47.090000000000003 108.16004646933708
4 46.359999999999999 110.07004711602929
5 41.299999999999997 107.13004597060835
6 49.390000000000001 109.92004733822183
7 66.180000000000007 110.38004707700041
8 47.130000000000003 109.92004733822183
9 67.719999999999999 109.4300469563324
10 46.109999999999999 114.40004902905777
11 66.590000000000003 111.14004751730948
12 47.630000000000003 107.66004625504924
13 63.789999999999999 110.53004742776565
14 54.280000000000001 120.93005188495273
15 68.030000000000001 123.1100525900646

Dihedral Coeffs

1 0.16666666699999999 1 3
2 0.15555555600000001 1 3
3 0.25 1 1
4 0.0 1 3
5 0.29999999999999999 1 3
6 0.16 1 3
7 0.0 -1 2
8 0.80000000000000004 1 1
9 0.080000000000000002 -1 3
10 10.5 -1 2

Atoms

1 0 1 0.0 -0.254 2.2250000000000001 -0.084000000000000005
2 0 2 0.0 -0.40200000000000002 0.72299999999999998 -0.14499999999999999
3 0 3 0.0 0.50800000000000001 0.055 0.016
4 0 4 0.0 -1.7989999999999999 0.091999999999999998 -0.29699999999999999
5 0 5 0.0 -2.8519999999999999 1.115 0.055
6 0 6 0.0 -2.762 1.984 -0.63
7 0 6 0.0 -2.7029999999999998 1.452 1.101
8 0 7 0.0 -1.9470000000000001 -0.254 -1.373
9 0 4 0.0 -1.9059999999999999 -1.115 0.65300000000000002
10 0 7 0.0 -2.9340000000000002 -1.5960000000000001 0.54800000000000004
11 0 7 0.0 -1.7549999999999999 -0.76700000000000002 1.728
12 0 8 0.0 -0.83599999999999997 -2.117 0.29199999999999998
13 0 9 0.0 0.16200000000000001 -1.639 0.38200000000000001

Bonds

1 1 12 13
2 2 9 10
3 2 9 11
4 4 5 6
5 4 5 7
6 2 4 8
7 7 2 3
8 3 9 12
9 5 4 5
10 6 4 9
11 8 2 4
12 9 1 2

Angles

1 1 11 9 12
2 2 10 9 11
3 1 10 9 12
4 3 9 12 13
5 4 8 4 9
6 5 6 5 7
7 6 5 4 8
8 8 4 5 6
9 8 4 5 7
10 4 4 9 10
11 4 4 9 11
12 10 3 2 4
13 12 2 4 8
14 14 1 2 3
15 7 5 4 9
16 9 4 9 12
17 11 2 4 5
18 13 2 4 9
19 15 1 2 4

Dihedrals

1 1 11 9 12 13
2 1 10 9 12 13
3 2 8 4 9 10
4 2 8 4 9 11
5 3 8 4 9 12
6 4 8 4 9 12
7 5 7 5 4 8
8 5 7 5 4 9
9 5 6 5 4 8
10 5 6 5 4 9
11 2 5 4 9 10
12 2 5 4 9 11
13 3 4 9 12 13
14 6 4 9 12 13
15 7 3 2 4 5
16 7 3 2 4 8
17 7 3 2 4 9
18 5 2 4 5 6
19 5 2 4 5 7
20 2 2 4 9 10
21 2 2 4 9 11
22 8 1 2 4 8
23 9 1 2 4 8
24 10 1 2 3 4
25 2 5 4 9 12
26 2 2 4 9 12
27 7 1 2 4 5
28 7 1 2 4 9

