LAMMPS data file for default_name

22 atoms
22 bonds
36 angles
59 dihedrals
0 impropers

9 atom types
11 bond types
18 angle types
9 dihedral types

-2.427 5.024 xlo xhi
-4.718 2.1299999999999999 ylo yhi
-0.94599999999999995 2.577 zlo zhi

Masses

1 16.0
2 12.01
3 1.008
4 12.01
5 14.01
6 1.008
7 1.008
8 1.008
9 1.008

Pair Coeffs

1 0.20999999984182244 2.9599219016446874
2 0.086000000128358844 3.3996695079448309
3 0.014999999991481437 2.5105525875831352
4 0.10939999991572773 3.3996695084507409
5 0.16999999991766696 3.2499985240310356
6 0.015700000004219245 1.0690784617205229
7 0.015700000098461422 2.4713530426421655
8 0.01570000002623629 2.6495327872602221
9 0.015000000064220668 2.5996424587350853

Bond Coeffs

1 344.30000000000001 1.087
2 478.39999999999998 1.387
3 337.30000000000001 1.0920000000000001
4 323.5 1.5129999999999999
5 394.10000000000002 1.018
6 320.60000000000002 1.47
7 335.89999999999998 1.093
8 303.10000000000002 1.5349999999999999
9 310.5 1.1123000000000001
10 328.30000000000001 1.508
11 648.0 1.214

Angle Coeffs

1 48.460000000000001 120.01005126147997
2 67.180000000000007 119.97005135892852
3 46.960000000000001 110.15004749409002
4 39.43 108.3500467226538
5 63.840000000000003 120.63005175638003
6 46.359999999999999 110.07004711602929
7 41.299999999999997 107.13004597060835
8 49.390000000000001 109.92004733822183
9 66.180000000000007 110.38004707700041
10 47.130000000000003 109.92004733822183
11 46.369999999999997 110.05004745123244
12 63.25 112.09004821093528
13 46.109999999999999 114.40004902905777
14 66.590000000000003 111.14004751730948
15 47.630000000000003 107.66004625504924
16 63.789999999999999 110.53004742776565
17 54.280000000000001 120.93005188495273
18 68.030000000000001 123.1100525900646

Dihedral Coeffs

1 3.625 -1 2
2 0.0 1 2
3 0.15555555600000001 1 3
4 0.29999999999999999 1 3
5 0.0 -1 2
6 0.80000000000000004 1 1
7 0.080000000000000002 -1 3
8 1.1000000000000001 -1 2
9 10.5 -1 2

Atoms

1 0 1 0.0 -0.41399999999999998 2.1299999999999999 0.0080000000000000002
2 0 2 0.0 0.216 0.79400000000000004 0.32400000000000001
3 0 3 0.0 1.2789999999999999 0.747 0.72599999999999998
4 0 4 0.0 -0.61399999999999999 -0.496 0.185
5 0 5 0.0 -2.0640000000000001 -0.129 -0.021999999999999999
6 0 6 0.0 -2.1640000000000001 0.48299999999999998 -0.94599999999999995
7 0 6 0.0 -2.427 0.45800000000000002 0.85199999999999998
8 0 7 0.0 -0.245 -1.0940000000000001 -0.71099999999999997
9 0 4 0.0 -0.47399999999999998 -1.3440000000000001 1.4630000000000001
10 0 8 0.0 -1.1120000000000001 -2.2850000000000001 1.363
11 0 8 0.0 -0.82699999999999996 -0.73999999999999999 2.3620000000000001
12 0 2 0.0 0.998 -1.7509999999999999 1.655
13 0 2 0.0 2.0419999999999998 -0.69799999999999995 2.0720000000000001
14 0 9 0.0 1.728 0.38600000000000001 2.2200000000000002
15 0 2 0.0 3.512 -1.1100000000000001 2.2759999999999998
16 0 9 0.0 4.2869999999999999 -0.32900000000000001 2.577
17 0 2 0.0 3.9359999999999999 -2.577 2.0750000000000002
18 0 9 0.0 5.024 -2.8820000000000001 2.2269999999999999
19 0 2 0.0 2.8900000000000001 -3.6320000000000001 1.669
20 0 9 0.0 3.2029999999999998 -4.718 1.5209999999999999
21 0 2 0.0 1.4199999999999999 -3.2189999999999999 1.4650000000000001
22 0 9 0.0 0.64300000000000002 -4.0019999999999998 1.171

Bonds

1 1 21 22
2 1 19 20
3 1 17 18
4 1 15 16
5 1 13 14
6 3 9 10
7 3 9 11
8 5 5 6
9 5 5 7
10 7 4 8
11 9 2 3
12 2 19 21
13 2 17 19
14 2 15 17
15 2 13 15
16 2 12 13
17 2 12 21
18 4 9 12
19 6 4 5
20 8 4 9
21 10 2 4
22 11 1 2

Angles

1 1 20 19 21
2 1 19 21 22
3 1 18 17 19
4 1 17 19 20
5 1 16 15 17
6 1 15 17 18
7 1 14 13 15
8 1 13 15 16
9 1 12 13 14
10 1 12 21 22
11 3 11 9 12
12 4 10 9 11
13 3 10 9 12
14 6 8 4 9
15 7 6 5 7
16 8 5 4 8
17 10 4 5 6
18 10 4 5 7
19 11 4 9 10
20 11 4 9 11
21 13 3 2 4
22 15 2 4 8
23 17 1 2 3
24 2 17 19 21
25 2 15 17 19
26 2 13 12 21
27 2 13 15 17
28 2 12 13 15
29 2 12 21 19
30 5 9 12 13
31 5 9 12 21
32 9 5 4 9
33 12 4 9 12
34 14 2 4 5
35 16 2 4 9
36 18 1 2 4

Dihedrals

1 1 20 19 21 22
2 1 18 17 19 20
3 1 18 17 19 21
4 1 17 19 21 22
5 1 16 15 17 18
6 1 16 15 17 19
7 1 15 17 19 20
8 1 14 13 12 21
9 1 14 13 15 16
10 1 14 13 15 17
11 1 13 12 21 22
12 1 13 15 17 18
13 1 12 13 15 16
14 1 12 21 19 20
15 2 11 9 12 13
16 2 11 9 12 21
17 2 10 9 12 13
18 2 10 9 12 21
19 1 9 12 13 14
20 1 9 12 21 22
21 3 8 4 9 10
22 3 8 4 9 11
23 3 8 4 9 12
24 4 7 5 4 8
25 4 7 5 4 9
26 4 6 5 4 8
27 4 6 5 4 9
28 3 5 4 9 10
29 3 5 4 9 11
30 5 3 2 4 5
31 5 3 2 4 8
32 5 3 2 4 9
33 4 2 4 5 6
34 4 2 4 5 7
35 3 2 4 9 10
36 3 2 4 9 11
37 6 1 2 4 8
38 7 1 2 4 8
39 8 12 19 21 22
40 8 17 21 19 20
41 8 15 19 17 18
42 8 13 17 15 16
43 8 12 15 13 14
44 9 1 2 3 4
45 1 15 13 12 21
46 1 15 17 19 21
47 1 13 12 21 19
48 1 13 15 17 19
49 1 12 13 15 17
50 1 12 21 19 17
51 1 9 12 13 15
52 1 9 12 21 19
53 3 5 4 9 12
54 2 4 9 12 13
55 2 4 9 12 21
56 3 2 4 9 12
57 5 1 2 4 5
58 5 1 2 4 9
59 8 13 21 12 9

