LAMMPS data file for default_name

8 atoms
7 bonds
12 angles
12 dihedrals
0 impropers

4 atom types
4 bond types
6 angle types
3 dihedral types

-4.5049999999999999 -1.5 xlo xhi
0.17100000000000001 2.5009999999999999 ylo yhi
-2.194 0.85399999999999998 zlo zhi

Masses

1 12.01
2 1.008
3 1.008
4 35.450000000000003

Pair Coeffs

1 0.10939999991572773 3.3996695084507409
2 0.01570000002623629 2.6495327872602221
3 0.015700000098461422 2.4713530426421655
4 0.26499999913508904 3.4709414071462272

Bond Coeffs

1 335.89999999999998 1.093
2 279.0 1.786
3 337.30000000000001 1.0920000000000001
4 303.10000000000002 1.5349999999999999

Angle Coeffs

1 43.710000000000001 105.93004545631753
2 39.18 109.55004723694461
3 46.369999999999997 110.05004745123244
4 39.43 108.3500467226538
5 46.359999999999999 110.07004711602929
6 62.200000000000003 110.33004734205052

Dihedral Coeffs

1 0.15555555600000001 1 3
2 0.25 1 1
3 0.0 1 3

Atoms

1 0 1 0.0 -3.8290000000000002 1.363 -1.1000000000000001
2 0 2 0.0 -4.3879999999999999 0.433 -0.751
3 0 2 0.0 -3.528 1.238 -2.194
4 0 2 0.0 -4.5049999999999999 2.2759999999999998 -0.99399999999999999
5 0 1 0.0 -2.5659999999999998 1.5580000000000001 -0.24199999999999999
6 0 3 0.0 -2.8610000000000002 1.661 0.85399999999999998
7 0 3 0.0 -2.0209999999999999 2.5009999999999999 -0.57899999999999996
8 0 4 0.0 -1.5 0.17100000000000001 -0.44400000000000001

Bonds

1 1 5 6
2 1 5 7
3 3 1 2
4 3 1 3
5 3 1 4
6 2 5 8
7 4 1 5

Angles

1 1 7 5 8
2 2 6 5 7
3 1 6 5 8
4 3 4 1 5
5 4 3 1 4
6 3 3 1 5
7 4 2 1 3
8 4 2 1 4
9 3 2 1 5
10 5 1 5 6
11 5 1 5 7
12 6 1 5 8

Dihedrals

1 1 4 1 5 6
2 1 4 1 5 7
3 2 4 1 5 8
4 3 4 1 5 8
5 1 3 1 5 6
6 1 3 1 5 7
7 2 3 1 5 8
8 3 3 1 5 8
9 1 2 1 5 6
10 1 2 1 5 7
11 2 2 1 5 8
12 3 2 1 5 8

