LAMMPS data file for default_name

47 atoms
50 bonds
80 angles
140 dihedrals
0 impropers

5 atom types
5 bond types
8 angle types
4 dihedral types

-6.202 11.964 xlo xhi
-1.29 4.8739999999999997 ylo yhi
-0.67800000000000005 6.7770000000000001 zlo zhi

Masses

1 12.01
2 1.008
3 16.0
4 32.060000000000002
5 16.0

Pair Coeffs

1 0.086000000128358844 3.3996695079448309
2 0.015000000064220668 2.5996424587350853
3 0.17000000010548533 3.0000123432245225
4 0.25 3.5635948725613571
5 0.20999999984182244 2.9599219016446874

Bond Coeffs

1 344.30000000000001 1.087
2 478.39999999999998 1.387
3 372.39999999999998 1.373
4 493.0 1.466
5 247.69999999999999 1.784

Angle Coeffs

1 48.460000000000001 120.01005126147997
2 67.180000000000007 119.97005135892852
3 69.790000000000006 119.20005108622101
4 63.310000000000002 119.95005169413167
5 41.200000000000003 108.73004665632943
6 45.299999999999997 121.88005200562073
7 78.019999999999996 119.89005155382559
8 37.950000000000003 104.04004447442216

Dihedral Coeffs

1 3.625 -1 2
2 0.90000000000000002 -1 2
3 1.3 -1 2
4 1.1000000000000001 -1 2

Atoms

1 0 1 0.0 -4.4100000000000001 2.6349999999999998 3.9740000000000002
2 0 2 0.0 -4.1740000000000004 3.6949999999999998 3.6280000000000001
3 0 1 0.0 -5.2439999999999998 2.4079999999999999 5.2480000000000002
4 0 2 0.0 -5.6180000000000003 3.3010000000000002 5.8499999999999996
5 0 1 0.0 -5.5750000000000002 0.97599999999999998 5.7080000000000002
6 0 2 0.0 -6.202 0.80900000000000005 6.6449999999999996
7 0 1 0.0 -5.0670000000000002 -0.23000000000000001 4.8970000000000002
8 0 2 0.0 -5.3120000000000003 -1.29 5.2359999999999998
9 0 1 0.0 -4.2329999999999997 -0.0030000000000000001 3.6219999999999999
10 0 2 0.0 -3.8679999999999999 -0.89500000000000002 3.0139999999999998
11 0 1 0.0 -3.9119999999999999 1.429 3.1560000000000001
12 0 3 0.0 -3.2069999999999999 1.6519999999999999 1.8420000000000001
13 0 1 0.0 -1.696 1.696 1.905
14 0 1 0.0 -0.88100000000000001 0.38900000000000001 1.845
15 0 1 0.0 0.63500000000000001 0.439 1.571
16 0 2 0.0 1.2270000000000001 -0.52900000000000003 1.464
17 0 2 0.0 -1.4079999999999999 -0.61699999999999999 1.952
18 0 1 0.0 -0.96199999999999997 3.0499999999999998 1.867
19 0 2 0.0 -1.5509999999999999 4.0190000000000001 1.9850000000000001
20 0 1 0.0 0.55300000000000005 3.101 1.5880000000000001
21 0 2 0.0 1.0820000000000001 4.1059999999999999 1.4890000000000001
22 0 1 0.0 1.3340000000000001 1.7949999999999999 1.351
23 0 4 0.0 2.9319999999999999 1.849 0.497
24 0 5 0.0 2.8170000000000002 3.181 -0.67800000000000005
25 0 5 0.0 3.0950000000000002 0.33200000000000002 -0.41799999999999998
26 0 1 0.0 4.4800000000000004 2.1070000000000002 1.3999999999999999
27 0 1 0.0 5.4459999999999997 0.92500000000000004 1.609
28 0 1 0.0 6.9269999999999996 1.1910000000000001 1.9379999999999999
29 0 2 0.0 7.657 0.32100000000000001 2.0329999999999999
30 0 2 0.0 5.0810000000000004 -0.14399999999999999 1.4490000000000001
31 0 1 0.0 4.952 3.5419999999999998 1.706
32 0 2 0.0 4.2229999999999999 4.4130000000000003 1.6200000000000001
33 0 1 0.0 6.4320000000000004 3.8079999999999998 2.0419999999999998
34 0 2 0.0 6.7939999999999996 4.8739999999999997 2.2189999999999999
35 0 1 0.0 7.4340000000000002 2.6400000000000001 2.0619999999999998
36 0 3 0.0 8.9179999999999993 2.9260000000000002 2.0750000000000002
37 0 1 0.0 9.6479999999999997 2.597 3.3559999999999999
38 0 1 0.0 10.066000000000001 3.7309999999999999 4.3120000000000003
39 0 2 0.0 9.7609999999999992 4.806 4.0880000000000001
40 0 1 0.0 10.912000000000001 3.415 5.5599999999999996
41 0 2 0.0 11.225 4.2549999999999999 6.2649999999999997
42 0 1 0.0 11.336 1.964 5.8540000000000001
43 0 2 0.0 11.964 1.7290000000000001 6.7770000000000001
44 0 1 0.0 10.904 0.82899999999999996 4.907
45 0 2 0.0 11.214 -0.246 5.1280000000000001
46 0 1 0.0 10.058999999999999 1.145 3.6579999999999999
47 0 2 0.0 9.7469999999999999 0.30499999999999999 2.9529999999999998

Bonds

1 1 46 47
2 1 44 45
3 1 42 43
4 1 40 41
5 1 38 39
6 1 33 34
7 1 31 32
8 1 28 29
9 1 27 30
10 1 20 21
11 1 18 19
12 1 15 16
13 1 14 17
14 1 9 10
15 1 7 8
16 1 5 6
17 1 3 4
18 1 1 2
19 2 44 46
20 2 42 44
21 2 40 42
22 2 38 40
23 2 37 38
24 2 37 46
25 3 36 37
26 3 35 36
27 2 33 35
28 2 31 33
29 2 28 35
30 2 27 28
31 2 26 27
32 2 26 31
33 4 23 24
34 4 23 25
35 5 23 26
36 5 22 23
37 2 20 22
38 2 18 20
39 2 15 22
40 2 14 15
41 2 13 14
42 2 13 18
43 3 12 13
44 3 11 12
45 2 9 11
46 2 7 9
47 2 5 7
48 2 3 5
49 2 1 3
50 2 1 11

Angles

1 1 45 44 46
2 1 44 46 47
3 1 43 42 44
4 1 42 44 45
5 1 41 40 42
6 1 40 42 43
7 1 39 38 40
8 1 38 40 41
9 1 37 38 39
10 1 37 46 47
11 1 34 33 35
12 1 32 31 33
13 1 31 33 34
14 1 29 28 35
15 1 28 27 30
16 1 27 28 29
17 1 26 27 30
18 1 26 31 32
19 1 21 20 22
20 1 19 18 20
21 1 18 20 21
22 1 16 15 22
23 1 15 14 17
24 1 14 15 16
25 1 13 14 17
26 1 13 18 19
27 1 10 9 11
28 1 8 7 9
29 1 7 9 10
30 1 6 5 7
31 1 5 7 8
32 1 4 3 5
33 1 3 5 6
34 1 2 1 3
35 1 2 1 11
36 1 1 3 4
37 2 42 44 46
38 2 40 42 44
39 2 38 37 46
40 2 38 40 42
41 2 37 38 40
42 2 37 46 44
43 3 36 37 38
44 3 36 37 46
45 4 35 36 37
46 3 33 35 36
47 2 31 33 35
48 2 28 35 33
49 3 28 35 36
50 2 27 26 31
51 2 27 28 35
52 2 26 27 28
53 2 26 31 33
54 5 25 23 26
55 6 24 23 25
56 5 24 23 26
57 7 23 26 27
58 7 23 26 31
59 5 22 23 24
60 5 22 23 25
61 8 22 23 26
62 7 20 22 23
63 2 18 20 22
64 2 15 22 20
65 7 15 22 23
66 2 14 13 18
67 2 14 15 22
68 2 13 14 15
69 2 13 18 20
70 3 12 13 14
71 3 12 13 18
72 4 11 12 13
73 3 9 11 12
74 2 7 9 11
75 2 5 7 9
76 2 3 1 11
77 2 3 5 7
78 2 1 3 5
79 2 1 11 9
80 3 1 11 12

Dihedrals

1 1 45 44 46 47
2 1 43 42 44 45
3 1 43 42 44 46
4 1 42 44 46 47
5 1 41 40 42 43
6 1 41 40 42 44
7 1 40 42 44 45
8 1 39 38 37 46
9 1 39 38 40 41
10 1 39 38 40 42
11 1 38 37 46 47
12 1 38 40 42 43
13 1 37 38 40 41
14 1 37 46 44 45
15 1 36 37 38 39
16 1 36 37 46 47
17 1 34 33 35 36
18 1 32 31 33 34
19 1 32 31 33 35
20 1 30 27 26 31
21 1 30 27 28 35
22 1 29 28 27 30
23 1 29 28 35 33
24 1 29 28 35 36
25 1 28 35 33 34
26 1 27 26 31 32
27 1 26 27 28 29
28 1 26 31 33 34
29 1 23 26 27 30
30 1 23 26 31 32
31 1 21 20 22 23
32 1 19 18 20 21
33 1 19 18 20 22
34 1 17 14 13 18
35 1 17 14 15 22
36 1 16 15 14 17
37 1 16 15 22 20
38 1 16 15 22 23
39 1 15 22 20 21
40 1 14 13 18 19
41 1 13 14 15 16
42 1 13 18 20 21
43 1 12 13 14 17
44 1 12 13 18 19
45 1 10 9 11 12
46 1 8 7 9 10
47 1 8 7 9 11
48 1 6 5 7 8
49 1 6 5 7 9
50 1 5 7 9 10
51 1 11 1 3 4
52 1 4 3 5 6
53 1 4 3 5 7
54 1 3 5 7 8
55 1 2 1 3 4
56 1 2 1 3 5
57 1 2 1 11 9
58 1 2 1 11 12
59 1 1 3 5 6
60 1 1 11 9 10
61 4 37 44 46 47
62 4 42 46 44 45
63 4 40 44 42 43
64 4 38 42 40 41
65 4 37 40 38 39
66 4 31 35 33 34
67 4 26 33 31 32
68 4 27 35 28 29
69 4 26 28 27 30
70 4 18 22 20 21
71 4 13 20 18 19
72 4 14 22 15 16
73 4 13 15 14 17
74 4 7 11 9 10
75 4 5 9 7 8
76 4 3 7 5 6
77 4 1 5 3 4
78 4 2 1 11 3
79 1 40 38 37 46
80 1 40 42 44 46
81 1 38 37 46 44
82 1 38 40 42 44
83 1 37 38 40 42
84 1 37 46 44 42
85 1 36 37 38 40
86 1 36 37 46 44
87 2 35 36 37 38
88 2 35 36 37 46
89 2 33 35 36 37
90 1 31 33 35 36
91 1 28 27 26 31
92 1 28 35 33 31
93 2 28 35 36 37
94 1 27 26 31 33
95 1 27 28 35 33
96 1 27 28 35 36
97 1 26 27 28 35
98 1 26 31 33 35
99 3 25 23 26 27
100 3 25 23 26 31
101 3 24 23 26 27
102 3 24 23 26 31
103 1 23 26 27 28
104 1 23 26 31 33
105 3 22 23 26 27
106 3 22 23 26 31
107 3 20 22 23 24
108 3 20 22 23 25
109 3 20 22 23 26
110 1 18 20 22 23
111 1 15 14 13 18
112 1 15 22 20 18
113 3 15 22 23 24
114 3 15 22 23 25
115 3 15 22 23 26
116 1 14 13 18 20
117 1 14 15 22 20
118 1 14 15 22 23
119 1 13 14 15 22
120 1 13 18 20 22
121 1 12 13 14 15
122 1 12 13 18 20
123 2 11 12 13 14
124 2 11 12 13 18
125 2 9 11 12 13
126 1 7 9 11 12
127 1 11 1 3 5
128 1 5 7 9 11
129 1 3 1 11 9
130 1 3 1 11 12
131 1 3 5 7 9
132 1 1 3 5 7
133 1 1 11 9 7
134 2 1 11 12 13
135 4 38 46 37 36
136 4 28 33 35 36
137 4 27 31 26 23
138 4 15 20 22 23
139 4 14 18 13 12
140 4 1 9 11 12

