LAMMPS data file for default_name

6 atoms
5 bonds
7 angles
3 dihedrals
0 impropers

4 atom types
3 bond types
3 angle types
1 dihedral types

-1.385 0.872 xlo xhi
-1.212 1.135 ylo yhi
-0.97599999999999998 0.879 zlo zhi

Masses

1 16.0
2 1.008
3 12.01
4 1.008

Pair Coeffs

1 0.2104000002486992 3.0664733874581418
2 0.0 0.0
3 0.10939999991572773 3.3996695084507409
4 0.015700000098461422 2.4713530426421655

Bond Coeffs

1 335.89999999999998 1.093
2 369.60000000000002 0.97399999999999998
3 314.10000000000002 1.4259999999999999

Angle Coeffs

1 39.18 109.55004723694461
2 47.090000000000003 108.16004646933708
3 50.969999999999999 109.88004686271258

Dihedral Coeffs

1 0.16666666699999999 1 3

Atoms

1 0 1 0.0 0.61199999999999999 0.053999999999999999 0.098000000000000004
2 0 2 0.0 0.872 1.135 0.091999999999999998
3 0 3 0.0 -0.88600000000000001 -0.10299999999999999 -0.0060000000000000001
4 0 4 0.0 -1.153 -1.212 -0.0
5 0 4 0.0 -1.252 0.37 -0.97599999999999998
6 0 4 0.0 -1.385 0.41199999999999998 0.879

Bonds

1 1 3 4
2 1 3 5
3 1 3 6
4 2 1 2
5 3 1 3

Angles

1 1 5 3 6
2 1 4 3 5
3 1 4 3 6
4 2 2 1 3
5 3 1 3 4
6 3 1 3 5
7 3 1 3 6

Dihedrals

1 1 2 1 3 4
2 1 2 1 3 5
3 1 2 1 3 6

