LAMMPS data file for default_name

20 atoms
19 bonds
31 angles
49 dihedrals
0 impropers

10 atom types
10 bond types
17 angle types
9 dihedral types

-3.6970000000000001 0.75 xlo xhi
-3.746 2.6280000000000001 ylo yhi
-1.383 3.948 zlo zhi

Masses

1 16.0
2 12.01
3 1.008
4 12.01
5 14.01
6 1.008
7 1.008
8 1.008
9 16.0
10 1.008

Pair Coeffs

1 0.20999999984182244 2.9599219016446874
2 0.086000000128358844 3.3996695079448309
3 0.014999999991481437 2.5105525875831352
4 0.10939999991572773 3.3996695084507409
5 0.16999999991766696 3.2499985240310356
6 0.015700000004219245 1.0690784617205229
7 0.015700000098461422 2.4713530426421655
8 0.01570000002623629 2.6495327872602221
9 0.2104000002486992 3.0664733874581418
10 0.0 0.0

Bond Coeffs

1 369.60000000000002 0.97399999999999998
2 466.39999999999998 1.306
3 648.0 1.214
4 394.10000000000002 1.018
5 320.60000000000002 1.47
6 335.89999999999998 1.093
7 328.30000000000001 1.508
8 337.30000000000001 1.0920000000000001
9 303.10000000000002 1.5349999999999999
10 310.5 1.1123000000000001

Angle Coeffs

1 77.379999999999995 122.88005243419641
2 51.189999999999998 107.37004595887495
3 47.630000000000003 107.66004625504924
4 41.299999999999997 107.13004597060835
5 49.390000000000001 109.92004733822183
6 66.590000000000003 111.14004751730948
7 47.130000000000003 109.92004733822183
8 69.840000000000003 112.20004808619127
9 68.030000000000001 123.1100525900646
10 46.369999999999997 110.05004745123244
11 39.43 108.3500467226538
12 66.180000000000007 110.38004707700041
13 46.359999999999999 110.07004711602929
14 63.789999999999999 110.53004742776565
15 63.210000000000001 110.63004747062323
16 46.109999999999999 114.40004902905777
17 54.280000000000001 120.93005188495273

Dihedral Coeffs

1 1.8999999999999999 1 1
2 2.2999999999999998 -1 2
3 0.0 -1 2
4 0.80000000000000004 1 1
5 0.080000000000000002 -1 3
6 0.29999999999999999 1 3
7 0.15555555600000001 1 3
8 1.1000000000000001 -1 2
9 10.5 -1 2

Atoms

1 0 1 0.0 -0.96999999999999997 2.6280000000000001 0.010999999999999999
2 0 2 0.0 -0.35899999999999999 1.274 -0.26300000000000001
3 0 3 0.0 0.75 1.1910000000000001 -0.51500000000000001
4 0 4 0.0 -1.256 0.023 -0.313
5 0 5 0.0 -2.6920000000000002 0.46800000000000003 -0.45200000000000001
6 0 6 0.0 -2.8079999999999998 1.0609999999999999 -1.383
7 0 6 0.0 -2.9689999999999999 1.095 0.42199999999999999
8 0 7 0.0 -0.95899999999999996 -0.61699999999999999 -1.208
9 0 4 0.0 -1.0680000000000001 -0.78600000000000003 0.98399999999999999
10 0 8 0.0 -1.387 -0.14899999999999999 1.8740000000000001
11 0 8 0.0 0.034000000000000002 -1.0580000000000001 1.0940000000000001
12 0 4 0.0 -1.8919999999999999 -2.0880000000000001 0.95799999999999996
13 0 5 0.0 -3.3690000000000002 -1.802 0.82999999999999996
14 0 6 0.0 -3.573 -1.288 -0.13200000000000001
15 0 6 0.0 -3.6970000000000001 -1.1619999999999999 1.6739999999999999
16 0 7 0.0 -1.5549999999999999 -2.734 0.081000000000000003
17 0 2 0.0 -1.6459999999999999 -2.843 2.2759999999999998
18 0 9 0.0 -2.718 -3.746 2.8399999999999999
19 0 10 0.0 -2.7229999999999999 -3.6699999999999999 3.948
20 0 1 0.0 -0.40200000000000002 -2.5539999999999998 3.0819999999999999

Bonds

1 1 18 19
2 4 13 14
3 4 13 15
4 6 12 16
5 8 9 10
6 8 9 11
7 4 5 6
8 4 5 7
9 6 4 8
10 10 2 3
11 2 17 18
12 3 17 20
13 5 12 13
14 7 12 17
15 9 9 12
16 5 4 5
17 9 4 9
18 7 2 4
19 3 1 2

Angles

1 2 17 18 19
2 3 16 12 17
3 4 14 13 15
4 5 13 12 16
5 7 12 13 14
6 7 12 13 15
7 10 11 9 12
8 11 10 9 11
9 10 10 9 12
10 13 9 12 16
11 13 8 4 9
12 4 6 5 7
13 5 5 4 8
14 7 4 5 6
15 7 4 5 7
16 10 4 9 10
17 10 4 9 11
18 16 3 2 4
19 3 2 4 8
20 17 1 2 3
21 1 18 17 20
22 6 13 12 17
23 8 12 17 18
24 9 12 17 20
25 12 9 12 13
26 14 9 12 17
27 12 5 4 9
28 15 4 9 12
29 6 2 4 5
30 14 2 4 9
31 9 1 2 4

Dihedrals

1 1 19 18 17 20
2 2 19 18 17 20
3 3 16 12 17 18
4 4 16 12 17 20
5 5 16 12 17 20
6 6 15 13 12 16
7 6 15 13 12 17
8 6 14 13 12 16
9 6 14 13 12 17
10 2 12 17 18 19
11 7 11 9 12 13
12 7 11 9 12 16
13 7 11 9 12 17
14 7 10 9 12 13
15 7 10 9 12 16
16 7 10 9 12 17
17 6 9 12 13 14
18 6 9 12 13 15
19 7 8 4 9 10
20 7 8 4 9 11
21 7 8 4 9 12
22 6 7 5 4 8
23 6 7 5 4 9
24 6 6 5 4 8
25 6 6 5 4 9
26 7 5 4 9 10
27 7 5 4 9 11
28 7 4 9 12 16
29 3 3 2 4 5
30 3 3 2 4 8
31 3 3 2 4 9
32 6 2 4 5 6
33 6 2 4 5 7
34 7 2 4 9 10
35 7 2 4 9 11
36 4 1 2 4 8
37 5 1 2 4 8
38 9 1 2 3 4
39 3 13 12 17 18
40 3 13 12 17 20
41 3 9 12 17 18
42 3 9 12 17 20
43 7 5 4 9 12
44 7 4 9 12 13
45 7 4 9 12 17
46 7 2 4 9 12
47 3 1 2 4 5
48 3 1 2 4 9
49 8 12 20 17 18

