LAMMPS data file for default_name

11 atoms
10 bonds
16 angles
24 dihedrals
0 impropers

8 atom types
8 bond types
12 angle types
9 dihedral types

-3.157 1.3600000000000001 xlo xhi
-0.79400000000000004 2.48 ylo yhi
-1.133 1.9830000000000001 zlo zhi

Masses

1 16.0
2 12.01
3 1.008
4 12.01
5 1.008
6 1.008
7 16.0
8 1.008

Pair Coeffs

1 0.20999999984182244 2.9599219016446874
2 0.086000000128358844 3.3996695079448309
3 0.014999999991481437 2.5105525875831352
4 0.10939999991572773 3.3996695084507409
5 0.01570000002623629 2.6495327872602221
6 0.015700000098461422 2.4713530426421655
7 0.2104000002486992 3.0664733874581418
8 0.0 0.0

Bond Coeffs

1 369.60000000000002 0.97399999999999998
2 335.89999999999998 1.093
3 314.10000000000002 1.4259999999999999
4 337.30000000000001 1.0920000000000001
5 303.10000000000002 1.5349999999999999
6 310.5 1.1123000000000001
7 328.30000000000001 1.508
8 648.0 1.214

Angle Coeffs

1 50.969999999999999 109.88004686271258
2 39.18 109.55004723694461
3 47.090000000000003 108.16004646933708
4 46.369999999999997 110.05004745123244
5 39.43 108.3500467226538
6 46.359999999999999 110.07004711602929
7 67.719999999999999 109.4300469563324
8 46.109999999999999 114.40004902905777
9 47.200000000000003 109.68004677699743
10 63.789999999999999 110.53004742776565
11 54.280000000000001 120.93005188495273
12 68.030000000000001 123.1100525900646

Dihedral Coeffs

1 0.16666666699999999 1 3
2 0.15555555600000001 1 3
3 0.25 1 1
4 0.0 1 3
5 0.16 1 3
6 0.0 -1 2
7 0.80000000000000004 1 1
8 0.080000000000000002 -1 3
9 10.5 -1 2

Atoms

1 0 1 0.0 1.3600000000000001 1.3680000000000001 -0.016
2 0 2 0.0 0.20599999999999999 0.61499999999999999 0.59999999999999998
3 0 3 0.0 0.32800000000000001 -0.48299999999999998 0.88100000000000001
4 0 4 0.0 -1.1020000000000001 1.355 0.93500000000000005
5 0 5 0.0 -1.444 1.0649999999999999 1.9830000000000001
6 0 5 0.0 -0.92100000000000004 2.48 0.89300000000000002
7 0 4 0.0 -2.1899999999999999 0.96899999999999997 -0.083000000000000004
8 0 6 0.0 -1.8540000000000001 1.26 -1.133
9 0 6 0.0 -3.157 1.518 0.17000000000000001
10 0 7 0.0 -2.4279999999999999 -0.52000000000000002 -0.021000000000000001
11 0 8 0.0 -2.7589999999999999 -0.79400000000000004 1.002

Bonds

1 1 10 11
2 2 7 8
3 2 7 9
4 4 4 5
5 4 4 6
6 6 2 3
7 3 7 10
8 5 4 7
9 7 2 4
10 8 1 2

Angles

1 1 9 7 10
2 2 8 7 9
3 1 8 7 10
4 3 7 10 11
5 4 6 4 7
6 5 5 4 6
7 4 5 4 7
8 6 4 7 8
9 6 4 7 9
10 8 3 2 4
11 9 2 4 5
12 9 2 4 6
13 11 1 2 3
14 7 4 7 10
15 10 2 4 7
16 12 1 2 4

Dihedrals

1 1 9 7 10 11
2 1 8 7 10 11
3 2 6 4 7 8
4 2 6 4 7 9
5 3 6 4 7 10
6 4 6 4 7 10
7 2 5 4 7 8
8 2 5 4 7 9
9 3 5 4 7 10
10 4 5 4 7 10
11 3 4 7 10 11
12 5 4 7 10 11
13 6 3 2 4 5
14 6 3 2 4 6
15 6 3 2 4 7
16 2 2 4 7 8
17 2 2 4 7 9
18 7 1 2 4 5
19 8 1 2 4 5
20 7 1 2 4 6
21 8 1 2 4 6
22 9 1 2 3 4
23 2 2 4 7 10
24 6 1 2 4 7

