LAMMPS data file for default_name

14 atoms
13 bonds
24 angles
27 dihedrals
0 impropers

2 atom types
2 bond types
3 angle types
2 dihedral types

-4.3220000000000001 -0.59899999999999998 xlo xhi
-1.016 2.8199999999999998 ylo yhi
-1.198 2.1539999999999999 zlo zhi

Masses

1 12.01
2 1.008

Pair Coeffs

1 0.10939999991572773 3.3996695084507409
2 0.01570000002623629 2.6495327872602221

Bond Coeffs

1 337.30000000000001 1.0920000000000001
2 303.10000000000002 1.5349999999999999

Angle Coeffs

1 39.43 108.3500467226538
2 46.369999999999997 110.05004745123244
3 63.210000000000001 110.63004747062323

Dihedral Coeffs

1 0.14999999999999999 1 3
2 0.16 1 3

Atoms

1 0 1 0.0 -3.8500000000000001 0.93600000000000005 -0.24299999999999999
2 0 2 0.0 -4.2999999999999998 -0.108 -0.33700000000000002
3 0 2 0.0 -4.0510000000000002 1.5249999999999999 -1.198
4 0 2 0.0 -4.3220000000000001 1.4750000000000001 0.64300000000000002
5 0 1 0.0 -2.3300000000000001 0.82099999999999995 -0.021999999999999999
6 0 1 0.0 -1.724 2.2309999999999999 0.106
7 0 2 0.0 -2.198 2.7679999999999998 0.99199999999999999
8 0 2 0.0 -1.925 2.8199999999999998 -0.84899999999999998
9 0 2 0.0 -0.59899999999999998 2.1459999999999999 0.27100000000000002
10 0 2 0.0 -1.8560000000000001 0.28199999999999997 -0.90800000000000003
11 0 1 0.0 -2.0590000000000002 0.027 1.2689999999999999
12 0 2 0.0 -0.93400000000000005 -0.058000000000000003 1.4330000000000001
13 0 2 0.0 -2.5099999999999998 -1.016 1.1739999999999999
14 0 2 0.0 -2.532 0.56699999999999995 2.1539999999999999

Bonds

1 1 11 12
2 1 11 13
3 1 11 14
4 1 6 7
5 1 6 8
6 1 6 9
7 1 5 10
8 1 1 2
9 1 1 3
10 1 1 4
11 2 5 6
12 2 5 11
13 2 1 5

Angles

1 1 13 11 14
2 1 12 11 13
3 1 12 11 14
4 2 10 5 11
5 1 8 6 9
6 1 7 6 8
7 1 7 6 9
8 2 6 5 10
9 2 5 6 7
10 2 5 6 8
11 2 5 6 9
12 2 5 11 12
13 2 5 11 13
14 2 5 11 14
15 2 4 1 5
16 1 3 1 4
17 2 3 1 5
18 1 2 1 3
19 1 2 1 4
20 2 2 1 5
21 2 1 5 10
22 3 6 5 11
23 3 1 5 6
24 3 1 5 11

Dihedrals

1 1 10 5 11 12
2 1 10 5 11 13
3 1 10 5 11 14
4 1 9 6 5 10
5 2 9 6 5 11
6 1 8 6 5 10
7 2 8 6 5 11
8 1 7 6 5 10
9 2 7 6 5 11
10 2 6 5 11 12
11 2 6 5 11 13
12 2 6 5 11 14
13 2 4 1 5 6
14 1 4 1 5 10
15 2 4 1 5 11
16 2 3 1 5 6
17 1 3 1 5 10
18 2 3 1 5 11
19 2 2 1 5 6
20 1 2 1 5 10
21 2 2 1 5 11
22 2 1 5 6 7
23 2 1 5 6 8
24 2 1 5 6 9
25 2 1 5 11 12
26 2 1 5 11 13
27 2 1 5 11 14

