LAMMPS data file for default_name

9 atoms
8 bonds
13 angles
16 dihedrals
0 impropers

5 atom types
5 bond types
7 angle types
5 dihedral types

-4.9039999999999999 -1.819 xlo xhi
0.48299999999999998 3.2850000000000001 ylo yhi
-2.4580000000000002 1.2130000000000001 zlo zhi

Masses

1 12.01
2 1.008
3 1.008
4 16.0
5 1.008

Pair Coeffs

1 0.10939999991572773 3.3996695084507409
2 0.01570000002623629 2.6495327872602221
3 0.015700000098461422 2.4713530426421655
4 0.2104000002486992 3.0664733874581418
5 0.0 0.0

Bond Coeffs

1 369.60000000000002 0.97399999999999998
2 335.89999999999998 1.093
3 314.10000000000002 1.4259999999999999
4 337.30000000000001 1.0920000000000001
5 303.10000000000002 1.5349999999999999

Angle Coeffs

1 50.969999999999999 109.88004686271258
2 39.18 109.55004723694461
3 47.090000000000003 108.16004646933708
4 46.369999999999997 110.05004745123244
5 39.43 108.3500467226538
6 46.359999999999999 110.07004711602929
7 67.719999999999999 109.4300469563324

Dihedral Coeffs

1 0.16666666699999999 1 3
2 0.15555555600000001 1 3
3 0.25 1 1
4 0.0 1 3
5 0.16 1 3

Atoms

1 0 1 0.0 -3.944 1.5780000000000001 -1.478
2 0 2 0.0 -3.718 0.48299999999999998 -1.7010000000000001
3 0 2 0.0 -4.0720000000000001 2.1459999999999999 -2.4580000000000002
4 0 2 0.0 -4.9039999999999999 1.651 -0.86699999999999999
5 0 1 0.0 -2.7789999999999999 2.1899999999999999 -0.67800000000000005
6 0 3 0.0 -3.0059999999999998 3.2850000000000001 -0.45500000000000002
7 0 3 0.0 -1.819 2.117 -1.288
8 0 4 0.0 -2.6099999999999999 1.4370000000000001 0.62
9 0 5 0.0 -3.5449999999999999 1.508 1.2130000000000001

Bonds

1 1 8 9
2 2 5 6
3 2 5 7
4 4 1 2
5 4 1 3
6 4 1 4
7 3 5 8
8 5 1 5

Angles

1 1 7 5 8
2 2 6 5 7
3 1 6 5 8
4 3 5 8 9
5 4 4 1 5
6 5 3 1 4
7 4 3 1 5
8 5 2 1 3
9 5 2 1 4
10 4 2 1 5
11 6 1 5 6
12 6 1 5 7
13 7 1 5 8

Dihedrals

1 1 7 5 8 9
2 1 6 5 8 9
3 2 4 1 5 6
4 2 4 1 5 7
5 3 4 1 5 8
6 4 4 1 5 8
7 2 3 1 5 6
8 2 3 1 5 7
9 3 3 1 5 8
10 4 3 1 5 8
11 2 2 1 5 6
12 2 2 1 5 7
13 3 2 1 5 8
14 4 2 1 5 8
15 3 1 5 8 9
16 5 1 5 8 9

