LAMMPS data file for default_name

11 atoms
10 bonds
18 angles
18 dihedrals
0 impropers

2 atom types
2 bond types
3 angle types
2 dihedral types

-3.9449999999999998 0.032000000000000001 xlo xhi
0.076999999999999999 2.859 ylo yhi
-1.085 1.1140000000000001 zlo zhi

Masses

1 12.01
2 1.008

Pair Coeffs

1 0.10939999991572773 3.3996695084507409
2 0.01570000002623629 2.6495327872602221

Bond Coeffs

1 337.30000000000001 1.0920000000000001
2 303.10000000000002 1.5349999999999999

Angle Coeffs

1 39.43 108.3500467226538
2 46.369999999999997 110.05004745123244
3 63.210000000000001 110.63004747062323

Dihedral Coeffs

1 0.14999999999999999 1 3
2 0.16 1 3

Atoms

1 0 1 0.0 -3.29 1.7330000000000001 -0.0080000000000000002
2 0 2 0.0 -3.9449999999999998 2.6120000000000001 0.29999999999999999
3 0 2 0.0 -3.4700000000000002 0.85499999999999998 0.69299999999999995
4 0 2 0.0 -3.5390000000000001 1.4179999999999999 -1.079
5 0 1 0.0 -1.806 2.117 0.076999999999999999
6 0 2 0.0 -1.5700000000000001 2.5499999999999998 1.1140000000000001
7 0 2 0.0 -1.516 2.859 -0.72899999999999998
8 0 1 0.0 -1.0900000000000001 0.76600000000000001 -0.066000000000000003
9 0 2 0.0 -1.3380000000000001 0.309 -1.085
10 0 2 0.0 -1.4750000000000001 0.076999999999999999 0.75700000000000001
11 0 2 0.0 0.032000000000000001 0.89800000000000002 0.040000000000000001

Bonds

1 1 8 9
2 1 8 10
3 1 8 11
4 1 5 6
5 1 5 7
6 1 1 2
7 1 1 3
8 1 1 4
9 2 5 8
10 2 1 5

Angles

1 1 10 8 11
2 1 9 8 10
3 1 9 8 11
4 2 7 5 8
5 1 6 5 7
6 2 6 5 8
7 2 5 8 9
8 2 5 8 10
9 2 5 8 11
10 2 4 1 5
11 1 3 1 4
12 2 3 1 5
13 1 2 1 3
14 1 2 1 4
15 2 2 1 5
16 2 1 5 6
17 2 1 5 7
18 3 1 5 8

Dihedrals

1 1 7 5 8 9
2 1 7 5 8 10
3 1 7 5 8 11
4 1 6 5 8 9
5 1 6 5 8 10
6 1 6 5 8 11
7 1 4 1 5 6
8 1 4 1 5 7
9 2 4 1 5 8
10 1 3 1 5 6
11 1 3 1 5 7
12 2 3 1 5 8
13 1 2 1 5 6
14 1 2 1 5 7
15 2 2 1 5 8
16 2 1 5 8 9
17 2 1 5 8 10
18 2 1 5 8 11

