LAMMPS data file for default_name

23 atoms
22 bonds
40 angles
54 dihedrals
0 impropers

6 atom types
7 bond types
13 angle types
14 dihedral types

-4.0279999999999996 3.593 xlo xhi
-4.4749999999999996 1.915 ylo yhi
-0.95899999999999996 2.7530000000000001 zlo zhi

Masses

1 12.01
2 1.008
3 12.01
4 16.0
5 16.0
6 1.008

Pair Coeffs

1 0.10939999991572773 3.3996695084507409
2 0.01570000002623629 2.6495327872602221
3 0.086000000128358844 3.3996695079448309
4 0.20999999984182244 2.9599219016446874
5 0.17000000010548533 3.0000123432245225
6 0.015700000098461422 2.4713530426421655

Bond Coeffs

1 337.30000000000001 1.0920000000000001
2 303.10000000000002 1.5349999999999999
3 335.89999999999998 1.093
4 301.5 1.4390000000000001
5 648.0 1.214
6 411.30000000000001 1.343
7 328.30000000000001 1.508

Angle Coeffs

1 39.43 108.3500467226538
2 46.369999999999997 110.05004745123244
3 63.210000000000001 110.63004747062323
4 46.359999999999999 110.07004711602929
5 39.18 109.55004723694461
6 50.840000000000003 108.82004686678859
7 67.780000000000001 108.42004669535831
8 75.930000000000007 123.33005291353435
9 63.630000000000003 115.1400492316122
10 47.200000000000003 109.68004677699743
11 68.030000000000001 123.1100525900646
12 69.260000000000005 111.96004809792466
13 63.789999999999999 110.53004742776565

Dihedral Coeffs

1 0.14999999999999999 1 3
2 0.16 1 3
3 0.15555555600000001 1 3
4 0.25 1 1
5 0.0 1 3
6 1.3999999999999999 -1 1
7 2.7000000000000002 -1 2
8 0.383333333 1 3
9 0.80000000000000004 -1 1
10 0.38300000000000001 1 3
11 0.80000000000000004 1 1
12 0.080000000000000002 -1 3
13 0.0 -1 2
14 10.5 -1 2

Atoms

1 0 1 0.0 -3.3300000000000001 -3.3410000000000002 0.035000000000000003
2 0 2 0.0 -4.0279999999999996 -3.036 0.88300000000000001
3 0 2 0.0 -3.2090000000000001 -4.4749999999999996 0.031
4 0 2 0.0 -3.7709999999999999 -3.0009999999999999 -0.95899999999999996
5 0 1 0.0 -1.9550000000000001 -2.6779999999999999 0.23999999999999999
6 0 2 0.0 -1.5149999999999999 -3.0110000000000001 1.2370000000000001
7 0 2 0.0 -1.2529999999999999 -2.9790000000000001 -0.60699999999999998
8 0 3 0.0 -2.133 -1.1499999999999999 0.24099999999999999
9 0 4 0.0 -3.5209999999999999 -0.55400000000000005 0.23599999999999999
10 0 5 0.0 -0.92200000000000004 -0.249 0.24099999999999999
11 0 1 0.0 0.27000000000000002 -0.98599999999999999 0.80300000000000005
12 0 6 0.0 0.50600000000000001 -1.8919999999999999 0.154
13 0 6 0.0 0.041000000000000002 -1.327 1.867
14 0 1 0.0 1.4750000000000001 -0.027 0.81799999999999995
15 0 1 0.0 1.1299999999999999 1.1950000000000001 1.6899999999999999
16 0 2 0.0 0.90400000000000003 0.84999999999999998 2.7530000000000001
17 0 2 0.0 0.217 1.722 1.258
18 0 2 0.0 2.0150000000000001 1.915 1.704
19 0 2 0.0 1.7 0.316 -0.245
20 0 1 0.0 2.7080000000000002 -0.74199999999999999 1.3999999999999999
21 0 2 0.0 2.9609999999999999 -1.647 0.755
22 0 2 0.0 2.4820000000000002 -1.0840000000000001 2.464
23 0 2 0.0 3.593 -0.024 1.411

Bonds

1 1 20 21
2 1 20 22
3 1 20 23
4 1 15 16
5 1 15 17
6 1 15 18
7 1 14 19
8 3 11 12
9 3 11 13
10 1 5 6
11 1 5 7
12 1 1 2
13 1 1 3
14 1 1 4
15 2 14 15
16 2 14 20
17 2 11 14
18 4 10 11
19 5 8 9
20 6 8 10
21 7 5 8
22 2 1 5

Angles

1 1 22 20 23
2 1 21 20 22
3 1 21 20 23
4 2 19 14 20
5 1 17 15 18
6 1 16 15 17
7 1 16 15 18
8 2 15 14 19
9 2 14 15 16
10 2 14 15 17
11 2 14 15 18
12 2 14 20 21
13 2 14 20 22
14 2 14 20 23
15 4 13 11 14
16 5 12 11 13
17 4 12 11 14
18 2 11 14 19
19 6 10 11 12
20 6 10 11 13
21 10 7 5 8
22 1 6 5 7
23 10 6 5 8
24 2 4 1 5
25 1 3 1 4
26 2 3 1 5
27 1 2 1 3
28 1 2 1 4
29 2 2 1 5
30 2 1 5 6
31 2 1 5 7
32 3 15 14 20
33 3 11 14 15
34 3 11 14 20
35 7 10 11 14
36 8 9 8 10
37 9 8 10 11
38 11 5 8 9
39 12 5 8 10
40 13 1 5 8

Dihedrals

1 1 19 14 20 21
2 1 19 14 20 22
3 1 19 14 20 23
4 1 18 15 14 19
5 2 18 15 14 20
6 1 17 15 14 19
7 2 17 15 14 20
8 1 16 15 14 19
9 2 16 15 14 20
10 2 15 14 20 21
11 2 15 14 20 22
12 2 15 14 20 23
13 3 13 11 14 15
14 3 13 11 14 19
15 3 13 11 14 20
16 3 12 11 14 15
17 3 12 11 14 19
18 3 12 11 14 20
19 2 11 14 15 16
20 2 11 14 15 17
21 2 11 14 15 18
22 2 11 14 20 21
23 2 11 14 20 22
24 2 11 14 20 23
25 4 10 11 14 19
26 5 10 11 14 19
27 8 8 10 11 12
28 8 8 10 11 13
29 11 7 5 8 9
30 12 7 5 8 9
31 13 7 5 8 10
32 11 6 5 8 9
33 13 6 5 8 9
34 12 6 5 8 9
35 13 6 5 8 10
36 1 4 1 5 6
37 1 4 1 5 7
38 3 4 1 5 8
39 1 3 1 5 6
40 1 3 1 5 7
41 3 3 1 5 8
42 1 2 1 5 6
43 1 2 1 5 7
44 3 2 1 5 8
45 3 10 11 14 15
46 3 10 11 14 20
47 6 9 8 10 11
48 7 9 8 10 11
49 9 8 10 11 14
50 10 8 10 11 14
51 7 5 8 10 11
52 13 1 5 8 9
53 13 1 5 8 10
54 14 5 9 8 10

