LAMMPS data file for default_name

30 atoms
30 bonds
50 angles
84 dihedrals
0 impropers

10 atom types
12 bond types
19 angle types
17 dihedral types

-3.105 10.683999999999999 xlo xhi
-3.6150000000000002 3.1539999999999999 ylo yhi
-0.76100000000000001 1.3140000000000001 zlo zhi

Masses

1 12.01
2 1.008
3 16.0
4 1.008
5 16.0
6 12.01
7 1.008
8 1.008
9 16.0
10 1.008

Pair Coeffs

1 0.086000000128358844 3.3996695079448309
2 0.015000000064220668 2.5996424587350853
3 0.20999999984182244 2.9599219016446874
4 0.014999999991481437 2.5105525875831352
5 0.17000000010548533 3.0000123432245225
6 0.10939999991572773 3.3996695084507409
7 0.015700000098461422 2.4713530426421655
8 0.01570000002623629 2.6495327872602221
9 0.2104000002486992 3.0664733874581418
10 0.0 0.0

Bond Coeffs

1 369.60000000000002 0.97399999999999998
2 335.89999999999998 1.093
3 314.10000000000002 1.4259999999999999
4 337.30000000000001 1.0920000000000001
5 303.10000000000002 1.5349999999999999
6 301.5 1.4390000000000001
7 648.0 1.214
8 411.30000000000001 1.343
9 349.69999999999999 1.4870000000000001
10 344.30000000000001 1.087
11 478.39999999999998 1.387
12 310.5 1.1123000000000001

Angle Coeffs

1 50.969999999999999 109.88004686271258
2 39.18 109.55004723694461
3 47.090000000000003 108.16004646933708
4 46.369999999999997 110.05004745123244
5 39.43 108.3500467226538
6 46.359999999999999 110.07004711602929
7 67.719999999999999 109.4300469563324
8 63.210000000000001 110.63004747062323
9 50.840000000000003 108.82004686678859
10 67.780000000000001 108.42004669535831
11 75.930000000000007 123.33005291353435
12 63.630000000000003 115.1400492316122
13 68.670000000000002 123.44005278879034
14 68.780000000000001 115.54004940304246
15 48.460000000000001 120.01005126147997
16 64.640000000000001 120.1400513744906
17 67.180000000000007 119.97005135892852
18 54.280000000000001 120.93005188495273
19 46.520000000000003 115.1400492316122

Dihedral Coeffs

1 0.16666666699999999 1 3
2 0.15555555600000001 1 3
3 0.25 1 1
4 0.0 1 3
5 0.16 1 3
6 0.14999999999999999 1 3
7 0.20000000000000001 -1 1
8 0.25 -1 2
9 0.17999999999999999 1 3
10 1.3999999999999999 -1 1
11 2.7000000000000002 -1 2
12 0.383333333 1 3
13 0.80000000000000004 -1 1
14 0.38300000000000001 1 3
15 3.625 -1 2
16 10.5 -1 2
17 1.1000000000000001 -1 2

Atoms

1 0 1 0.0 1.4890000000000001 2.0219999999999998 0.752
2 0 2 0.0 2.1280000000000001 2.9670000000000001 0.78200000000000003
3 0 1 0.0 -0.045999999999999999 2.1309999999999998 0.78400000000000003
4 0 2 0.0 -0.54500000000000004 3.1539999999999999 0.83599999999999997
5 0 1 0.0 -0.90800000000000003 0.85399999999999998 0.74199999999999999
6 0 1 0.0 -2.444 0.96199999999999997 0.76300000000000001
7 0 3 0.0 -3.105 2.319 0.82099999999999995
8 0 4 0.0 -3.0819999999999999 0.017999999999999999 0.72999999999999998
9 0 1 0.0 -0.23200000000000001 -0.52900000000000003 0.67200000000000004
10 0 2 0.0 -0.86899999999999999 -1.474 0.64200000000000002
11 0 1 0.0 1.304 -0.63600000000000001 0.63800000000000001
12 0 2 0.0 1.8029999999999999 -1.6599999999999999 0.58399999999999996
13 0 1 0.0 2.1640000000000001 0.64000000000000001 0.67200000000000004
14 0 1 0.0 3.6989999999999998 0.53700000000000003 0.628
15 0 3 0.0 4.5369999999999999 1.792 0.65900000000000003
16 0 5 0.0 4.3689999999999998 -0.81299999999999994 0.54600000000000004
17 0 6 0.0 5.8559999999999999 -0.58999999999999997 0.41199999999999998
18 0 7 0.0 6.234 -0.0050000000000000001 1.3140000000000001
19 0 7 0.0 6.0629999999999997 0.0050000000000000001 -0.53900000000000003
20 0 6 0.0 6.5910000000000002 -1.9399999999999999 0.33900000000000002
21 0 8 0.0 6.2220000000000004 -2.5270000000000001 -0.56599999999999995
22 0 8 0.0 6.3899999999999997 -2.536 1.29
23 0 6 0.0 8.1029999999999998 -1.679 0.20899999999999999
24 0 8 0.0 8.4600000000000009 -1.0820000000000001 1.1120000000000001
25 0 8 0.0 8.3010000000000002 -1.0820000000000001 -0.74199999999999999
26 0 6 0.0 8.8580000000000005 -3.0190000000000001 0.14099999999999999
27 0 7 0.0 8.4969999999999999 -3.6150000000000002 -0.76100000000000001
28 0 7 0.0 8.6549999999999994 -3.613 1.093
29 0 9 0.0 10.339 -2.75 0.017000000000000001
30 0 10 0.0 10.683999999999999 -2.1680000000000001 0.89800000000000002

Bonds

1 1 29 30
2 2 26 27
3 2 26 28
4 4 23 24
5 4 23 25
6 4 20 21
7 4 20 22
8 2 17 18
9 2 17 19
10 10 11 12
11 10 9 10
12 12 6 8
13 10 3 4
14 10 1 2
15 3 26 29
16 5 23 26
17 5 20 23
18 5 17 20
19 6 16 17
20 7 14 15
21 8 14 16
22 9 13 14
23 11 11 13
24 11 9 11
25 7 6 7
26 9 5 6
27 11 5 9
28 11 3 5
29 11 1 3
30 11 1 13

Angles

1 1 28 26 29
2 2 27 26 28
3 1 27 26 29
4 3 26 29 30
5 4 25 23 26
6 5 24 23 25
7 4 24 23 26
8 6 23 26 27
9 6 23 26 28
10 4 22 20 23
11 5 21 20 22
12 4 21 20 23
13 4 20 23 24
14 4 20 23 25
15 6 19 17 20
16 2 18 17 19
17 6 18 17 20
18 4 17 20 21
19 4 17 20 22
20 9 16 17 18
21 9 16 17 19
22 15 12 11 13
23 15 10 9 11
24 15 9 11 12
25 18 7 6 8
26 19 5 6 8
27 15 5 9 10
28 15 4 3 5
29 15 2 1 3
30 15 2 1 13
31 15 1 3 4
32 7 23 26 29
33 8 20 23 26
34 8 17 20 23
35 10 16 17 20
36 11 15 14 16
37 12 14 16 17
38 13 13 14 15
39 14 13 14 16
40 16 11 13 14
41 17 9 11 13
42 16 6 5 9
43 13 5 6 7
44 17 5 9 11
45 17 3 1 13
46 16 3 5 6
47 17 3 5 9
48 17 1 3 5
49 17 1 13 11
50 16 1 13 14

Dihedrals

1 1 28 26 29 30
2 1 27 26 29 30
3 2 25 23 26 27
4 2 25 23 26 28
5 3 25 23 26 29
6 4 25 23 26 29
7 2 24 23 26 27
8 2 24 23 26 28
9 3 24 23 26 29
10 4 24 23 26 29
11 3 23 26 29 30
12 5 23 26 29 30
13 6 22 20 23 24
14 6 22 20 23 25
15 5 22 20 23 26
16 6 21 20 23 24
17 6 21 20 23 25
18 5 21 20 23 26
19 2 20 23 26 27
20 2 20 23 26 28
21 2 19 17 20 21
22 2 19 17 20 22
23 2 19 17 20 23
24 2 18 17 20 21
25 2 18 17 20 22
26 2 18 17 20 23
27 5 17 20 23 24
28 5 17 20 23 25
29 3 16 17 20 21
30 4 16 17 20 21
31 3 16 17 20 22
32 4 16 17 20 22
33 12 14 16 17 18
34 12 14 16 17 19
35 15 12 11 13 14
36 15 10 9 11 12
37 15 10 9 11 13
38 15 8 6 5 9
39 15 6 5 9 10
40 15 5 9 11 12
41 15 13 1 3 4
42 15 4 3 5 6
43 15 4 3 5 9
44 15 3 5 6 8
45 15 3 5 9 10
46 15 2 1 3 4
47 15 2 1 3 5
48 15 2 1 13 11
49 15 2 1 13 14
50 15 1 13 11 12
51 17 9 13 11 12
52 17 5 11 9 10
53 16 5 8 6 7
54 17 1 5 3 4
55 17 2 1 13 3
56 2 20 23 26 29
57 7 17 20 23 26
58 8 17 20 23 26
59 9 17 20 23 26
60 2 16 17 20 23
61 10 15 14 16 17
62 11 15 14 16 17
63 13 14 16 17 20
64 14 14 16 17 20
65 11 13 14 16 17
66 15 11 13 14 15
67 15 11 13 14 16
68 15 9 11 13 14
69 15 7 6 5 9
70 15 6 5 9 11
71 15 13 1 3 5
72 15 5 9 11 13
73 15 3 1 13 11
74 15 3 1 13 14
75 15 3 5 6 7
76 15 3 5 9 11
77 15 1 3 5 6
78 15 1 3 5 9
79 15 1 13 11 9
80 15 1 13 14 15
81 15 1 13 14 16
82 16 13 15 14 16
83 17 14 1 13 11
84 17 6 3 5 9

