LAMMPS data file for default_name

15 atoms
14 bonds
24 angles
35 dihedrals
0 impropers

4 atom types
4 bond types
6 angle types
6 dihedral types

-4.5030000000000001 0.95999999999999996 xlo xhi
-1.1599999999999999 2.504 ylo yhi
-1.7729999999999999 1.399 zlo zhi

Masses

1 12.01
2 1.008
3 12.01
4 1.008

Pair Coeffs

1 0.10939999991572773 3.3996695084507409
2 0.01570000002623629 2.6495327872602221
3 0.086000000128358844 3.3996695079448309
4 0.015000000064220668 2.5996424587350853

Bond Coeffs

1 337.30000000000001 1.0920000000000001
2 328.30000000000001 1.508
3 344.30000000000001 1.087
4 589.70000000000005 1.3240000000000001

Angle Coeffs

1 39.43 108.3500467226538
2 62.700000000000003 116.52005016682131
3 47.030000000000001 110.49004752521418
4 50.039999999999999 120.94005171735114
5 64.329999999999998 123.42005312399351
6 45.659999999999997 117.30005027192722

Dihedral Coeffs

1 0.0 1 2
2 6.6500000000000004 -1 2
3 1.1499999999999999 1 1
4 0.38 -1 3
5 1.8999999999999999 -1 1
6 1.1000000000000001 -1 2

Atoms

1 0 1 0.0 -3.657 0.97099999999999997 0.13
2 0 2 0.0 -3.8279999999999998 -0.024 0.65500000000000003
3 0 2 0.0 -3.629 0.80400000000000005 -0.999
4 0 2 0.0 -4.5030000000000001 1.6910000000000001 0.38800000000000001
5 0 3 0.0 -2.3170000000000002 1.5640000000000001 0.59499999999999997
6 0 4 0.0 -2.2970000000000002 2.504 1.2370000000000001
7 0 3 0.0 -1.002 0.89600000000000002 0.16500000000000001
8 0 1 0.0 -1.026 -0.32600000000000001 -0.77400000000000002
9 0 2 0.0 -1.4910000000000001 -0.025999999999999999 -1.7729999999999999
10 0 2 0.0 -1.643 -1.1599999999999999 -0.30599999999999999
11 0 2 0.0 0.039 -0.69299999999999995 -0.94899999999999995
12 0 1 0.0 0.33600000000000002 1.4430000000000001 0.68600000000000005
13 0 2 0.0 0.95999999999999996 1.8120000000000001 -0.193
14 0 2 0.0 0.89300000000000002 0.61799999999999999 1.2390000000000001
15 0 2 0.0 0.129 2.3109999999999999 1.399

Bonds

1 1 12 13
2 1 12 14
3 1 12 15
4 1 8 9
5 1 8 10
6 1 8 11
7 3 5 6
8 1 1 2
9 1 1 3
10 1 1 4
11 2 7 8
12 2 7 12
13 4 5 7
14 2 1 5

Angles

1 1 14 12 15
2 1 13 12 14
3 1 13 12 15
4 1 10 8 11
5 1 9 8 10
6 1 9 8 11
7 3 7 8 9
8 3 7 8 10
9 3 7 8 11
10 3 7 12 13
11 3 7 12 14
12 3 7 12 15
13 4 6 5 7
14 3 4 1 5
15 1 3 1 4
16 3 3 1 5
17 1 2 1 3
18 1 2 1 4
19 3 2 1 5
20 6 1 5 6
21 2 8 7 12
22 5 5 7 8
23 5 5 7 12
24 5 1 5 7

Dihedrals

1 1 11 8 7 12
2 1 10 8 7 12
3 1 9 8 7 12
4 1 8 7 12 13
5 1 8 7 12 14
6 1 8 7 12 15
7 2 6 5 7 8
8 2 6 5 7 12
9 3 5 7 8 9
10 4 5 7 8 9
11 3 5 7 8 10
12 4 5 7 8 10
13 3 5 7 8 11
14 4 5 7 8 11
15 3 5 7 12 13
16 4 5 7 12 13
17 3 5 7 12 14
18 4 5 7 12 14
19 3 5 7 12 15
20 4 5 7 12 15
21 1 4 1 5 6
22 3 4 1 5 7
23 4 4 1 5 7
24 1 3 1 5 6
25 3 3 1 5 7
26 4 3 1 5 7
27 1 2 1 5 6
28 3 2 1 5 7
29 4 2 1 5 7
30 6 7 1 5 6
31 5 1 5 7 8
32 2 1 5 7 8
33 5 1 5 7 12
34 2 1 5 7 12
35 6 5 8 7 12

