LAMMPS data file for default_name

14 atoms
13 bonds
22 angles
29 dihedrals
0 impropers

6 atom types
6 bond types
9 angle types
9 dihedral types

-6.5709999999999997 -2.7469999999999999 xlo xhi
-1.149 3.7069999999999999 ylo yhi
-1.056 2.077 zlo zhi

Masses

1 12.01
2 1.008
3 12.01
4 16.0
5 16.0
6 1.008

Pair Coeffs

1 0.10939999991572773 3.3996695084507409
2 0.01570000002623629 2.6495327872602221
3 0.086000000128358844 3.3996695079448309
4 0.20999999984182244 2.9599219016446874
5 0.2104000002486992 3.0664733874581418
6 0.0 0.0

Bond Coeffs

1 369.60000000000002 0.97399999999999998
2 648.0 1.214
3 466.39999999999998 1.306
4 337.30000000000001 1.0920000000000001
5 303.10000000000002 1.5349999999999999
6 328.30000000000001 1.508

Angle Coeffs

1 77.379999999999995 122.88005243419641
2 51.189999999999998 107.37004595887495
3 47.200000000000003 109.68004677699743
4 39.43 108.3500467226538
5 46.369999999999997 110.05004745123244
6 63.789999999999999 110.53004742776565
7 68.030000000000001 123.1100525900646
8 69.840000000000003 112.20004808619127
9 63.210000000000001 110.63004747062323

Dihedral Coeffs

1 1.8999999999999999 1 1
2 2.2999999999999998 -1 2
3 0.80000000000000004 1 1
4 0.080000000000000002 -1 3
5 0.0 -1 2
6 0.14999999999999999 1 3
7 0.15555555600000001 1 3
8 0.16 1 3
9 1.1000000000000001 -1 2

Atoms

1 0 1 0.0 -6.0119999999999996 0.029999999999999999 -0.111
2 0 2 0.0 -5.976 -1.1060000000000001 -0.19800000000000001
3 0 2 0.0 -6.5709999999999997 0.46200000000000002 -1.004
4 0 2 0.0 -6.5490000000000004 0.32100000000000001 0.84999999999999998
5 0 1 0.0 -4.577 0.58799999999999997 -0.086999999999999994
6 0 1 0.0 -3.8119999999999998 -0.014 1.107
7 0 2 0.0 -2.7469999999999999 0.39100000000000001 1.119
8 0 2 0.0 -3.7869999999999999 -1.149 1.0069999999999999
9 0 2 0.0 -4.3380000000000001 0.27000000000000002 2.077
10 0 2 0.0 -4.0469999999999997 0.30599999999999999 -1.056
11 0 3 0.0 -4.6239999999999997 2.121 0.050999999999999997
12 0 4 0.0 -5.9320000000000004 2.8540000000000001 -0.13100000000000001
13 0 5 0.0 -3.403 2.8730000000000002 0.52200000000000002
14 0 6 0.0 -3.7170000000000001 3.7069999999999999 1.1819999999999999

Bonds

1 1 13 14
2 4 6 7
3 4 6 8
4 4 6 9
5 4 5 10
6 4 1 2
7 4 1 3
8 4 1 4
9 2 11 12
10 3 11 13
11 5 5 6
12 6 5 11
13 5 1 5

Angles

1 2 11 13 14
2 3 10 5 11
3 4 8 6 9
4 4 7 6 8
5 4 7 6 9
6 5 6 5 10
7 5 5 6 7
8 5 5 6 8
9 5 5 6 9
10 5 4 1 5
11 4 3 1 4
12 5 3 1 5
13 4 2 1 3
14 4 2 1 4
15 5 2 1 5
16 5 1 5 10
17 1 12 11 13
18 6 6 5 11
19 7 5 11 12
20 8 5 11 13
21 9 1 5 6
22 6 1 5 11

Dihedrals

1 1 12 11 13 14
2 2 12 11 13 14
3 3 10 5 11 12
4 4 10 5 11 12
5 5 10 5 11 13
6 6 9 6 5 10
7 7 9 6 5 11
8 6 8 6 5 10
9 7 8 6 5 11
10 6 7 6 5 10
11 7 7 6 5 11
12 2 5 11 13 14
13 8 4 1 5 6
14 6 4 1 5 10
15 7 4 1 5 11
16 8 3 1 5 6
17 6 3 1 5 10
18 7 3 1 5 11
19 8 2 1 5 6
20 6 2 1 5 10
21 7 2 1 5 11
22 8 1 5 6 7
23 8 1 5 6 8
24 8 1 5 6 9
25 5 6 5 11 12
26 5 6 5 11 13
27 5 1 5 11 12
28 5 1 5 11 13
29 9 5 12 11 13

