LAMMPS data file for default_name

8 atoms
7 bonds
12 angles
13 dihedrals
0 impropers

3 atom types
3 bond types
4 angle types
3 dihedral types

-4.8049999999999997 -1.806 xlo xhi
0.29899999999999999 2.625 ylo yhi
-2.496 0.80500000000000005 zlo zhi

Masses

1 19.0
2 12.01
3 1.008

Pair Coeffs

1 0.060999999861473579 3.1181455140920482
2 0.10939999991572773 3.3996695084507409
3 0.015700000021275418 2.2931733000782102

Bond Coeffs

1 326.39999999999998 1.1000000000000001
2 363.80000000000001 1.3440000000000001
3 303.10000000000002 1.5349999999999999

Angle Coeffs

1 71.260000000000005 107.1600460407614
2 51.359999999999999 108.4100462900021
3 66.219999999999999 109.41004671857777
4 46.020000000000003 111.59004799664743

Dihedral Coeffs

1 0.15555555600000001 1 3
2 1.2 -1 1
3 0.0 1 3

Atoms

1 0 1 0.0 -1.806 2.625 -0.81299999999999994
2 0 2 0.0 -2.6949999999999998 1.5820000000000001 -0.22800000000000001
3 0 3 0.0 -3.0390000000000001 1.911 0.80500000000000005
4 0 1 0.0 -1.946 0.29899999999999999 -0.11700000000000001
5 0 2 0.0 -3.9209999999999998 1.3859999999999999 -1.1399999999999999
6 0 3 0.0 -4.4950000000000001 2.3650000000000002 -1.2190000000000001
7 0 1 0.0 -4.8049999999999997 0.33600000000000002 -0.55800000000000005
8 0 1 0.0 -3.4700000000000002 0.96499999999999997 -2.496

Bonds

1 1 5 6
2 1 2 3
3 2 5 7
4 2 5 8
5 2 2 4
6 3 2 5
7 2 1 2

Angles

1 2 6 5 7
2 2 6 5 8
3 2 3 2 4
4 4 3 2 5
5 4 2 5 6
6 2 1 2 3
7 1 7 5 8
8 3 4 2 5
9 3 2 5 7
10 3 2 5 8
11 1 1 2 4
12 3 1 2 5

Dihedrals

1 1 4 2 5 6
2 1 3 2 5 6
3 1 3 2 5 7
4 1 3 2 5 8
5 1 1 2 5 6
6 2 4 2 5 7
7 3 4 2 5 7
8 2 4 2 5 8
9 3 4 2 5 8
10 2 1 2 5 7
11 3 1 2 5 7
12 2 1 2 5 8
13 3 1 2 5 8

