LAMMPS data file for default_name

58 atoms
57 bonds
108 angles
185 dihedrals
0 impropers

8 atom types
11 bond types
21 angle types
20 dihedral types

-7.133 13.74 xlo xhi
-1.28 2.9350000000000001 ylo yhi
-0.95399999999999996 4.7809999999999997 zlo zhi

Masses

1 14.01
2 1.008
3 12.01
4 1.008
5 1.008
6 12.01
7 16.0
8 1.008

Pair Coeffs

1 0.16999999991766696 3.2499985240310356
2 0.015700000004219245 1.0690784617205229
3 0.10939999991572773 3.3996695084507409
4 0.015700000098461422 2.4713530426421655
5 0.01570000002623629 2.6495327872602221
6 0.086000000128358844 3.3996695079448309
7 0.20999999984182244 2.9599219016446874
8 0.014999999991481437 2.5105525875831352

Bond Coeffs

1 310.5 1.1123000000000001
2 648.0 1.214
3 337.30000000000001 1.0920000000000001
4 328.30000000000001 1.508
5 303.10000000000002 1.5349999999999999
6 410.19999999999999 1.0089999999999999
7 478.19999999999999 1.345
8 335.89999999999998 1.093
9 330.60000000000002 1.46
10 394.10000000000002 1.018
11 320.60000000000002 1.47

Angle Coeffs

1 54.280000000000001 120.93005188495273
2 47.200000000000003 109.68004677699743
3 39.43 108.3500467226538
4 46.109999999999999 114.40004902905777
5 68.030000000000001 123.1100525900646
6 46.369999999999997 110.05004745123244
7 63.789999999999999 110.53004742776565
8 63.210000000000001 110.63004747062323
9 49.210000000000001 118.46005088366657
10 75.829999999999998 122.03005235638598
11 67.859999999999999 115.15004963696842
12 49.82 109.32004708107642
13 39.18 109.55004723694461
14 46.039999999999999 116.78004981988477
15 63.920000000000002 121.35005229413763
16 46.359999999999999 110.07004711602929
17 65.849999999999994 112.13004811348674
18 47.130000000000003 109.92004733822183
19 41.299999999999997 107.13004597060835
20 49.390000000000001 109.92004733822183
21 66.180000000000007 110.38004707700041

Dihedral Coeffs

1 0.0 -1 2
2 0.80000000000000004 1 1
3 0.080000000000000002 -1 3
4 0.14999999999999999 1 3
5 0.15555555600000001 1 3
6 0.16 1 3
7 0.20000000000000001 -1 1
8 0.25 -1 2
9 0.17999999999999999 1 3
10 2.0 1 1
11 2.5 -1 2
12 0.070000000000000007 1 2
13 0.10000000000000001 1 4
14 0.0 1 2
15 0.53000000000000003 1 1
16 0.14999999999999999 -1 3
17 0.5 -1 4
18 0.29999999999999999 1 3
19 10.5 -1 2
20 1.1000000000000001 -1 2

Atoms

1 0 1 0.0 -6.3150000000000004 0.47899999999999998 -0.499
2 0 2 0.0 -7.133 1.083 -0.94499999999999995
3 0 2 0.0 -6.7190000000000003 -0.13400000000000001 0.33300000000000002
4 0 3 0.0 -5.2409999999999997 1.3979999999999999 0.031
5 0 4 0.0 -4.8239999999999998 2.0299999999999998 -0.82199999999999995
6 0 4 0.0 -5.6840000000000002 2.0819999999999999 0.82899999999999996
7 0 3 0.0 -4.1109999999999998 0.55400000000000005 0.64800000000000002
8 0 5 0.0 -3.6659999999999999 -0.126 -0.151
9 0 5 0.0 -4.5309999999999997 -0.081000000000000003 1.496
10 0 3 0.0 -3.012 1.4830000000000001 1.1990000000000001
11 0 5 0.0 -3.4550000000000001 2.1600000000000001 2.0019999999999998
12 0 5 0.0 -2.5840000000000001 2.1190000000000002 0.35499999999999998
13 0 3 0.0 -1.8939999999999999 0.62 1.8140000000000001
14 0 5 0.0 -1.4450000000000001 -0.053999999999999999 1.0109999999999999
15 0 5 0.0 -2.3290000000000002 -0.021999999999999999 2.6499999999999999
16 0 3 0.0 -0.79200000000000004 1.5249999999999999 2.3929999999999998
17 0 5 0.0 -1.2350000000000001 2.1949999999999998 3.202
18 0 5 0.0 -0.34599999999999997 2.1680000000000001 1.5640000000000001
19 0 3 0.0 0.307 0.63700000000000001 3.0030000000000001
20 0 4 0.0 -0.14000000000000001 -0.019 3.8210000000000002
21 0 4 0.0 1.1220000000000001 1.2989999999999999 3.444
22 0 1 0.0 0.89600000000000002 -0.23100000000000001 1.917
23 0 2 0.0 0.55800000000000005 -1.28 1.7949999999999999
24 0 6 0.0 2.0129999999999999 0.31 1.0589999999999999
25 0 7 0.0 2.6360000000000001 -0.55200000000000005 -0.012
26 0 3 0.0 2.4790000000000001 1.7629999999999999 1.2569999999999999
27 0 5 0.0 1.5640000000000001 2.4430000000000001 1.2789999999999999
28 0 5 0.0 3.1739999999999999 2.0779999999999998 0.40999999999999998
29 0 3 0.0 3.2120000000000002 1.855 2.6080000000000001
30 0 5 0.0 3.5129999999999999 2.9350000000000001 2.8130000000000002
31 0 5 0.0 2.52 1.488 3.4369999999999998
32 0 3 0.0 4.4779999999999998 0.98099999999999998 2.5590000000000002
33 0 5 0.0 4.1989999999999998 -0.095000000000000001 2.3079999999999998
34 0 5 0.0 5.1769999999999996 1.389 1.756
35 0 3 0.0 5.1870000000000003 1.0169999999999999 3.9249999999999998
36 0 5 0.0 5.4160000000000004 2.097 4.2089999999999996
37 0 5 0.0 4.5229999999999997 0.54200000000000004 4.7199999999999998
38 0 3 0.0 6.5099999999999998 0.24299999999999999 3.7890000000000001
39 0 5 0.0 7.0720000000000001 0.23899999999999999 4.7809999999999997
40 0 5 0.0 6.2999999999999998 -0.82699999999999996 3.4580000000000002
41 0 3 0.0 7.3369999999999997 0.98099999999999998 2.7210000000000001
42 0 5 0.0 6.7400000000000002 1.0149999999999999 1.75
43 0 5 0.0 7.5380000000000003 2.0459999999999998 3.0739999999999998
44 0 3 0.0 8.6760000000000002 0.27000000000000002 2.4590000000000001
45 0 5 0.0 9.2910000000000004 0.221 3.4180000000000001
46 0 5 0.0 8.4789999999999992 -0.78400000000000003 2.0739999999999998
47 0 3 0.0 9.4329999999999998 1.081 1.391
48 0 5 0.0 8.7910000000000004 1.157 0.45200000000000001
49 0 5 0.0 9.6430000000000007 2.1280000000000001 1.7909999999999999
50 0 3 0.0 10.757999999999999 0.38700000000000001 1.0289999999999999
51 0 5 0.0 11.42 0.29999999999999999 1.9530000000000001
52 0 5 0.0 10.539 -0.65400000000000003 0.61799999999999999
53 0 3 0.0 11.477 1.2250000000000001 -0.043999999999999997
54 0 5 0.0 11.718999999999999 2.258 0.373
55 0 5 0.0 10.798999999999999 1.3340000000000001 -0.95399999999999996
56 0 6 0.0 12.776 0.51300000000000001 -0.46200000000000002
57 0 8 0.0 13.74 1.111 -0.58199999999999996
58 0 7 0.0 12.794 -0.98799999999999999 -0.61899999999999999

Bonds

1 1 56 57
2 3 53 54
3 3 53 55
4 3 50 51
5 3 50 52
6 3 47 48
7 3 47 49
8 3 44 45
9 3 44 46
10 3 41 42
11 3 41 43
12 3 38 39
13 3 38 40
14 3 35 36
15 3 35 37
16 3 32 33
17 3 32 34
18 3 29 30
19 3 29 31
20 3 26 27
21 3 26 28
22 6 22 23
23 8 19 20
24 8 19 21
25 3 16 17
26 3 16 18
27 3 13 14
28 3 13 15
29 3 10 11
30 3 10 12
31 3 7 8
32 3 7 9
33 8 4 5
34 8 4 6
35 10 1 2
36 10 1 3
37 2 56 58
38 4 53 56
39 5 50 53
40 5 47 50
41 5 44 47
42 5 41 44
43 5 38 41
44 5 35 38
45 5 32 35
46 5 29 32
47 5 26 29
48 2 24 25
49 4 24 26
50 7 22 24
51 9 19 22
52 5 16 19
53 5 13 16
54 5 10 13
55 5 7 10
56 5 4 7
57 11 1 4

Angles

1 1 57 56 58
2 2 55 53 56
3 3 54 53 55
4 2 54 53 56
5 4 53 56 57
6 6 52 50 53
7 3 51 50 52
8 6 51 50 53
9 6 50 53 54
10 6 50 53 55
11 6 49 47 50
12 3 48 47 49
13 6 48 47 50
14 6 47 50 51
15 6 47 50 52
16 6 46 44 47
17 3 45 44 46
18 6 45 44 47
19 6 44 47 48
20 6 44 47 49
21 6 43 41 44
22 3 42 41 43
23 6 42 41 44
24 6 41 44 45
25 6 41 44 46
26 6 40 38 41
27 3 39 38 40
28 6 39 38 41
29 6 38 41 42
30 6 38 41 43
31 6 37 35 38
32 3 36 35 37
33 6 36 35 38
34 6 35 38 39
35 6 35 38 40
36 6 34 32 35
37 3 33 32 34
38 6 33 32 35
39 6 32 35 36
40 6 32 35 37
41 6 31 29 32
42 3 30 29 31
43 6 30 29 32
44 6 29 32 33
45 6 29 32 34
46 6 28 26 29
47 3 27 26 28
48 6 27 26 29
49 6 26 29 30
50 6 26 29 31
51 2 24 26 27
52 2 24 26 28
53 9 23 22 24
54 12 21 19 22
55 13 20 19 21
56 12 20 19 22
57 14 19 22 23
58 6 18 16 19
59 3 17 16 18
60 6 17 16 19
61 16 16 19 20
62 16 16 19 21
63 6 15 13 16
64 3 14 13 15
65 6 14 13 16
66 6 13 16 17
67 6 13 16 18
68 6 12 10 13
69 3 11 10 12
70 6 11 10 13
71 6 10 13 14
72 6 10 13 15
73 6 9 7 10
74 3 8 7 9
75 6 8 7 10
76 6 7 10 11
77 6 7 10 12
78 16 6 4 7
79 13 5 4 6
80 16 5 4 7
81 6 4 7 8
82 6 4 7 9
83 18 3 1 4
84 19 2 1 3
85 18 2 1 4
86 20 1 4 5
87 20 1 4 6
88 5 53 56 58
89 7 50 53 56
90 8 47 50 53
91 8 44 47 50
92 8 41 44 47
93 8 38 41 44
94 8 35 38 41
95 8 32 35 38
96 8 29 32 35
97 8 26 29 32
98 5 25 24 26
99 7 24 26 29
100 10 22 24 25
101 11 22 24 26
102 15 19 22 24
103 17 16 19 22
104 8 13 16 19
105 8 10 13 16
106 8 7 10 13
107 8 4 7 10
108 21 1 4 7

Dihedrals

1 1 55 53 56 57
2 2 55 53 56 58
3 3 55 53 56 58
4 1 54 53 56 57
5 2 54 53 56 58
6 3 54 53 56 58
7 4 52 50 53 54
8 4 52 50 53 55
9 5 52 50 53 56
10 4 51 50 53 54
11 4 51 50 53 55
12 5 51 50 53 56
13 1 50 53 56 57
14 4 49 47 50 51
15 4 49 47 50 52
16 6 49 47 50 53
17 4 48 47 50 51
18 4 48 47 50 52
19 6 48 47 50 53
20 6 47 50 53 54
21 6 47 50 53 55
22 4 46 44 47 48
23 4 46 44 47 49
24 6 46 44 47 50
25 4 45 44 47 48
26 4 45 44 47 49
27 6 45 44 47 50
28 6 44 47 50 51
29 6 44 47 50 52
30 4 43 41 44 45
31 4 43 41 44 46
32 6 43 41 44 47
33 4 42 41 44 45
34 4 42 41 44 46
35 6 42 41 44 47
36 6 41 44 47 48
37 6 41 44 47 49
38 4 40 38 41 42
39 4 40 38 41 43
40 6 40 38 41 44
41 4 39 38 41 42
42 4 39 38 41 43
43 6 39 38 41 44
44 6 38 41 44 45
45 6 38 41 44 46
46 4 37 35 38 39
47 4 37 35 38 40
48 6 37 35 38 41
49 4 36 35 38 39
50 4 36 35 38 40
51 6 36 35 38 41
52 6 35 38 41 42
53 6 35 38 41 43
54 4 34 32 35 36
55 4 34 32 35 37
56 6 34 32 35 38
57 4 33 32 35 36
58 4 33 32 35 37
59 6 33 32 35 38
60 6 32 35 38 39
61 6 32 35 38 40
62 4 31 29 32 33
63 4 31 29 32 34
64 6 31 29 32 35
65 4 30 29 32 33
66 4 30 29 32 34
67 6 30 29 32 35
68 6 29 32 35 36
69 6 29 32 35 37
70 4 28 26 29 30
71 4 28 26 29 31
72 6 28 26 29 32
73 4 27 26 29 30
74 4 27 26 29 31
75 6 27 26 29 32
76 6 26 29 32 33
77 6 26 29 32 34
78 2 25 24 26 27
79 3 25 24 26 27
80 2 25 24 26 28
81 3 25 24 26 28
82 5 24 26 29 30
83 5 24 26 29 31
84 10 23 22 24 25
85 11 23 22 24 25
86 11 23 22 24 26
87 1 22 24 26 27
88 1 22 24 26 28
89 14 21 19 22 23
90 14 21 19 22 24
91 14 20 19 22 23
92 14 20 19 22 24
93 5 18 16 19 20
94 5 18 16 19 21
95 5 18 16 19 22
96 5 17 16 19 20
97 5 17 16 19 21
98 5 17 16 19 22
99 14 16 19 22 23
100 4 15 13 16 17
101 4 15 13 16 18
102 6 15 13 16 19
103 4 14 13 16 17
104 4 14 13 16 18
105 6 14 13 16 19
106 5 13 16 19 20
107 5 13 16 19 21
108 4 12 10 13 14
109 4 12 10 13 15
110 6 12 10 13 16
111 4 11 10 13 14
112 4 11 10 13 15
113 6 11 10 13 16
114 6 10 13 16 17
115 6 10 13 16 18
116 4 9 7 10 11
117 4 9 7 10 12
118 6 9 7 10 13
119 4 8 7 10 11
120 4 8 7 10 12
121 6 8 7 10 13
122 6 7 10 13 14
123 6 7 10 13 15
124 5 6 4 7 8
125 5 6 4 7 9
126 5 6 4 7 10
127 5 5 4 7 8
128 5 5 4 7 9
129 5 5 4 7 10
130 6 4 7 10 11
131 6 4 7 10 12
132 18 3 1 4 5
133 18 3 1 4 6
134 18 3 1 4 7
135 18 2 1 4 5
136 18 2 1 4 6
137 18 2 1 4 7
138 5 1 4 7 8
139 5 1 4 7 9
140 19 53 57 56 58
141 20 24 19 22 23
142 1 50 53 56 58
143 5 47 50 53 56
144 7 44 47 50 53
145 8 44 47 50 53
146 9 44 47 50 53
147 7 41 44 47 50
148 8 41 44 47 50
149 9 41 44 47 50
150 7 38 41 44 47
151 8 38 41 44 47
152 9 38 41 44 47
153 7 35 38 41 44
154 8 35 38 41 44
155 9 35 38 41 44
156 7 32 35 38 41
157 8 32 35 38 41
158 9 32 35 38 41
159 7 29 32 35 38
160 8 29 32 35 38
161 9 29 32 35 38
162 7 26 29 32 35
163 8 26 29 32 35
164 9 26 29 32 35
165 1 25 24 26 29
166 5 24 26 29 32
167 12 22 24 26 29
168 13 22 24 26 29
169 11 19 22 24 25
170 11 19 22 24 26
171 15 16 19 22 24
172 16 16 19 22 24
173 17 16 19 22 24
174 5 13 16 19 22
175 7 10 13 16 19
176 8 10 13 16 19
177 9 10 13 16 19
178 7 7 10 13 16
179 8 7 10 13 16
180 9 7 10 13 16
181 7 4 7 10 13
182 8 4 7 10 13
183 9 4 7 10 13
184 5 1 4 7 10
185 19 26 22 24 25

