LAMMPS data file for default_name

9 atoms
8 bonds
13 angles
12 dihedrals
0 impropers

4 atom types
4 bond types
5 angle types
3 dihedral types

-3.9830000000000001 -1.0669999999999999 xlo xhi
-1.486 3.109 ylo yhi
-1.2629999999999999 1.1859999999999999 zlo zhi

Masses

1 12.01
2 1.008
3 12.01
4 14.01

Pair Coeffs

1 0.10939999991572773 3.3996695084507409
2 0.01570000002623629 2.6495327872602221
3 0.21000000185780754 3.3996695053019637
4 0.16999999991766696 3.2499985240310356

Bond Coeffs

1 1014.5 1.1379999999999999
2 337.30000000000001 1.0920000000000001
3 368.30000000000001 1.47
4 303.10000000000002 1.5349999999999999

Angle Coeffs

1 48.25 109.75004732265974
2 39.43 108.3500467226538
3 58.100000000000001 178.50007650075884
4 46.369999999999997 110.05004745123244
5 64.290000000000006 111.42004798108535

Dihedral Coeffs

1 0.0 -1 2
2 0.14999999999999999 1 3
3 0.15555555600000001 1 3

Atoms

1 0 1 0.0 -3.2320000000000002 2.012 0.083000000000000004
2 0 2 0.0 -3.9830000000000001 1.4259999999999999 -0.53700000000000003
3 0 2 0.0 -3.2639999999999998 3.109 -0.217
4 0 2 0.0 -3.492 1.913 1.1859999999999999
5 0 1 0.0 -1.8180000000000001 1.4510000000000001 -0.16
6 0 2 0.0 -1.0669999999999999 2.036 0.46500000000000002
7 0 2 0.0 -1.552 1.5489999999999999 -1.2629999999999999
8 0 3 0.0 -1.782 -0.032000000000000001 0.252
9 0 4 0.0 -1.748 -1.486 0.66000000000000003

Bonds

1 2 5 6
2 2 5 7
3 2 1 2
4 2 1 3
5 2 1 4
6 1 8 9
7 3 5 8
8 4 1 5

Angles

1 1 7 5 8
2 2 6 5 7
3 1 6 5 8
4 4 4 1 5
5 2 3 1 4
6 4 3 1 5
7 2 2 1 3
8 2 2 1 4
9 4 2 1 5
10 4 1 5 6
11 4 1 5 7
12 3 5 8 9
13 5 1 5 8

Dihedrals

1 1 7 5 8 9
2 1 6 5 8 9
3 2 4 1 5 6
4 2 4 1 5 7
5 3 4 1 5 8
6 2 3 1 5 6
7 2 3 1 5 7
8 3 3 1 5 8
9 2 2 1 5 6
10 2 2 1 5 7
11 3 2 1 5 8
12 1 1 5 8 9

